
     Program PWSCF v.7.5 starts on 29Nov2025 at 20:36: 5 
        Git branch: develop
        Last git commit: 70e07caa2a5fab3dd9374bc01196f67e923fc5ea
        Last git commit date: Mon Aug 18 10:06:47 2025 +0000
        Last git commit subject: Merge branch 'stressed-by-optional-variables' into

     This program is part of the open-source Quantum ESPRESSO suite
     for quantum simulation of materials; please cite
         "P. Giannozzi et al., J. Phys.:Condens. Matter 21 395502 (2009);
         "P. Giannozzi et al., J. Phys.:Condens. Matter 29 465901 (2017);
         "P. Giannozzi et al., J. Chem. Phys. 152 154105 (2020);
          URL http://www.quantum-espresso.org", 
     in publications or presentations arising from this work. More details at
     http://www.quantum-espresso.org/quote

     Parallel version (MPI), running on   128 processors

     MPI processes distributed on     1 nodes
     983910 MiB available memory on the printing compute node when the environment starts

     Waiting for input...
     Reading input from standard input

     Current dimensions of program PWSCF are:
     Max number of different atomic species (ntypx) = 10
     Max number of k-points (npk) =  40000
     Max angular momentum in pseudopotentials (lmaxx) =  4
     file Sr.pz-spn-kjpaw_psl.1.0.0.UPF: wavefunction(s)  4P renormalized
     file Mo.pz-spn-kjpaw_psl.1.0.0.UPF: wavefunction(s)  4S 4D renormalized
     file O.pz-n-kjpaw_psl.1.0.0.UPF: wavefunction(s)  2S 2P renormalized

     Atomic positions and unit cell read from directory:
     ./out/smo.save/

     Found identity + (  0.0000  0.0000 -0.5000) symmetry
     This is a supercell, fractional translations are disabled
     Message from routine setup:
     using ibrav=0 with symmetry is DISCOURAGED, use correct ibrav instead

     K-points division:     npool     =     128
     Subspace diagonalization in iterative solution of the eigenvalue problem:
     a serial algorithm will be used

     Message from routine divide_et_impera:
     suboptimal parallelization: some nodes have no k-points

     G-vector sticks info
     --------------------
     sticks:   dense  smooth     PW     G-vecs:    dense   smooth      PW
     Sum        5385    2701    749               419469   148351   21815

     Using Slab Decomposition



     bravais-lattice index     =            0
     lattice parameter (alat)  =      10.6088  a.u.
     unit-cell volume          =    1688.5722 (a.u.)^3
     number of atoms/cell      =           20
     number of atomic types    =            3
     number of electrons       =       168.00
     number of Kohn-Sham states=          101
     kinetic-energy cutoff     =      75.0000  Ry
     charge density cutoff     =     600.0000  Ry
     Exchange-correlation= SLA  PZ   NOGX NOGC
                           (   1   1   0   0   0   0   0)

     celldm(1)=  10.608847  celldm(2)=   0.000000  celldm(3)=   0.000000
     celldm(4)=   0.000000  celldm(5)=   0.000000  celldm(6)=   0.000000

     crystal axes: (cart. coord. in units of alat)
               a(1) = (   1.000000   0.000000   0.000000 )  
               a(2) = (   0.000000   1.000000   0.000000 )  
               a(3) = (   0.000000   0.000000   1.414214 )  

     reciprocal axes: (cart. coord. in units 2 pi/alat)
               b(1) = (  1.000000  0.000000  0.000000 )  
               b(2) = (  0.000000  1.000000  0.000000 )  
               b(3) = (  0.000000  0.000000  0.707107 )  


     PseudoPot. # 1 for Sr read from file:
     ./pseudo/Sr.pz-spn-kjpaw_psl.1.0.0.UPF
     MD5 check sum: 14b1f655f5497b386c4f305353cf4fd4
     Pseudo is Projector augmented-wave + core cor, Zval = 10.0
     Generated using 'atomic' code by A. Dal Corso  v.7.3
     Shape of augmentation charge: PSQ
     Using radial grid of 1221 points,  6 beta functions with: 
                l(1) =   0
                l(2) =   0
                l(3) =   1
                l(4) =   1
                l(5) =   2
                l(6) =   2
     Q(r) pseudized with 0 coefficients 


     PseudoPot. # 2 for Mo read from file:
     ./pseudo/Mo.pz-spn-kjpaw_psl.1.0.0.UPF
     MD5 check sum: 2e12aff744a4785a34e7548d4bec1d21
     Pseudo is Projector augmented-wave + core cor, Zval = 14.0
     Generated using 'atomic' code by A. Dal Corso  v.7.3
     Shape of augmentation charge: PSQ
     Using radial grid of 1229 points,  6 beta functions with: 
                l(1) =   0
                l(2) =   0
                l(3) =   1
                l(4) =   1
                l(5) =   2
                l(6) =   2
     Q(r) pseudized with 0 coefficients 


     PseudoPot. # 3 for O  read from file:
     ./pseudo/O.pz-n-kjpaw_psl.1.0.0.UPF
     MD5 check sum: 71a951e35f67dc87891058fc5642ed8f
     Pseudo is Projector augmented-wave + core cor, Zval =  6.0
     Generated using 'atomic' code by A. Dal Corso  v.7.3
     Shape of augmentation charge: PSQ
     Using radial grid of 1095 points,  4 beta functions with: 
                l(1) =   0
                l(2) =   0
                l(3) =   1
                l(4) =   1
     Q(r) pseudized with 0 coefficients 


     atomic species   valence    mass     pseudopotential
     Sr               10.00    87.62000     Sr( 1.00)
     Mo               14.00    95.95000     Mo( 1.00)
     O                 6.00    15.99900     O ( 1.00)

     16 Sym. Ops., with inversion, found


                                    s                        frac. trans.

      isym =  1     identity                                     

 cryst.   s( 1) = (     1          0          0      )
                  (     0          1          0      )
                  (     0          0          1      )

 cart.    s( 1) = (  1.0000000  0.0000000  0.0000000 )
                  (  0.0000000  1.0000000  0.0000000 )
                  (  0.0000000  0.0000000  1.0000000 )


      isym =  2     180 deg rotation - cart. axis [0,0,1]        

 cryst.   s( 2) = (    -1          0          0      )
                  (     0         -1          0      )
                  (     0          0          1      )

 cart.    s( 2) = ( -1.0000000  0.0000000  0.0000000 )
                  (  0.0000000 -1.0000000  0.0000000 )
                  (  0.0000000  0.0000000  1.0000000 )


      isym =  3     180 deg rotation - cart. axis [0,1,0]        

 cryst.   s( 3) = (    -1          0          0      )
                  (     0          1          0      )
                  (     0          0         -1      )

 cart.    s( 3) = ( -1.0000000  0.0000000  0.0000000 )
                  (  0.0000000  1.0000000  0.0000000 )
                  (  0.0000000  0.0000000 -1.0000000 )


      isym =  4     180 deg rotation - cart. axis [1,0,0]        

 cryst.   s( 4) = (     1          0          0      )
                  (     0         -1          0      )
                  (     0          0         -1      )

 cart.    s( 4) = (  1.0000000  0.0000000  0.0000000 )
                  (  0.0000000 -1.0000000  0.0000000 )
                  (  0.0000000  0.0000000 -1.0000000 )


      isym =  5     180 deg rotation - cart. axis [1,1,0]        

 cryst.   s( 5) = (     0          1          0      )
                  (     1          0          0      )
                  (     0          0         -1      )

 cart.    s( 5) = (  0.0000000  1.0000000  0.0000000 )
                  (  1.0000000  0.0000000  0.0000000 )
                  (  0.0000000  0.0000000 -1.0000000 )


      isym =  6     180 deg rotation - cart. axis [1,-1,0]       

 cryst.   s( 6) = (     0         -1          0      )
                  (    -1          0          0      )
                  (     0          0         -1      )

 cart.    s( 6) = (  0.0000000 -1.0000000  0.0000000 )
                  ( -1.0000000  0.0000000  0.0000000 )
                  (  0.0000000  0.0000000 -1.0000000 )


      isym =  7      90 deg rotation - cart. axis [0,0,-1]       

 cryst.   s( 7) = (     0         -1          0      )
                  (     1          0          0      )
                  (     0          0          1      )

 cart.    s( 7) = (  0.0000000  1.0000000  0.0000000 )
                  ( -1.0000000  0.0000000  0.0000000 )
                  (  0.0000000  0.0000000  1.0000000 )


      isym =  8      90 deg rotation - cart. axis [0,0,1]        

 cryst.   s( 8) = (     0          1          0      )
                  (    -1          0          0      )
                  (     0          0          1      )

 cart.    s( 8) = (  0.0000000 -1.0000000  0.0000000 )
                  (  1.0000000  0.0000000  0.0000000 )
                  (  0.0000000  0.0000000  1.0000000 )


      isym =  9     inversion                                    

 cryst.   s( 9) = (    -1          0          0      )
                  (     0         -1          0      )
                  (     0          0         -1      )

 cart.    s( 9) = ( -1.0000000  0.0000000  0.0000000 )
                  (  0.0000000 -1.0000000  0.0000000 )
                  (  0.0000000  0.0000000 -1.0000000 )


      isym = 10     inv. 180 deg rotation - cart. axis [0,0,1]   

 cryst.   s(10) = (     1          0          0      )
                  (     0          1          0      )
                  (     0          0         -1      )

 cart.    s(10) = (  1.0000000  0.0000000  0.0000000 )
                  (  0.0000000  1.0000000  0.0000000 )
                  (  0.0000000  0.0000000 -1.0000000 )


      isym = 11     inv. 180 deg rotation - cart. axis [0,1,0]   

 cryst.   s(11) = (     1          0          0      )
                  (     0         -1          0      )
                  (     0          0          1      )

 cart.    s(11) = (  1.0000000  0.0000000  0.0000000 )
                  (  0.0000000 -1.0000000  0.0000000 )
                  (  0.0000000  0.0000000  1.0000000 )


      isym = 12     inv. 180 deg rotation - cart. axis [1,0,0]   

 cryst.   s(12) = (    -1          0          0      )
                  (     0          1          0      )
                  (     0          0          1      )

 cart.    s(12) = ( -1.0000000  0.0000000  0.0000000 )
                  (  0.0000000  1.0000000  0.0000000 )
                  (  0.0000000  0.0000000  1.0000000 )


      isym = 13     inv. 180 deg rotation - cart. axis [1,1,0]   

 cryst.   s(13) = (     0         -1          0      )
                  (    -1          0          0      )
                  (     0          0          1      )

 cart.    s(13) = (  0.0000000 -1.0000000  0.0000000 )
                  ( -1.0000000  0.0000000  0.0000000 )
                  (  0.0000000  0.0000000  1.0000000 )


      isym = 14     inv. 180 deg rotation - cart. axis [1,-1,0]  

 cryst.   s(14) = (     0          1          0      )
                  (     1          0          0      )
                  (     0          0          1      )

 cart.    s(14) = (  0.0000000  1.0000000  0.0000000 )
                  (  1.0000000  0.0000000  0.0000000 )
                  (  0.0000000  0.0000000  1.0000000 )


      isym = 15     inv.  90 deg rotation - cart. axis [0,0,-1]  

 cryst.   s(15) = (     0          1          0      )
                  (    -1          0          0      )
                  (     0          0         -1      )

 cart.    s(15) = (  0.0000000 -1.0000000  0.0000000 )
                  (  1.0000000  0.0000000  0.0000000 )
                  (  0.0000000  0.0000000 -1.0000000 )


      isym = 16     inv.  90 deg rotation - cart. axis [0,0,1]   

 cryst.   s(16) = (     0         -1          0      )
                  (     1          0          0      )
                  (     0          0         -1      )

 cart.    s(16) = (  0.0000000  1.0000000  0.0000000 )
                  ( -1.0000000  0.0000000  0.0000000 )
                  (  0.0000000  0.0000000 -1.0000000 )


   Cartesian axes

     site n.     atom                  positions (alat units)
         1        Sr     tau(   1) = (   0.0000000   0.5000000   0.3535535  )
         2        Sr     tau(   2) = (   0.0000000   0.5000000   1.0606604  )
         3        Sr     tau(   3) = (   0.5000000   0.0000000   1.0606604  )
         4        Sr     tau(   4) = (   0.5000000   0.0000000   0.3535535  )
         5        Mo     tau(   5) = (   0.0000000   0.0000000   0.0000000  )
         6        Mo     tau(   6) = (   0.0000000   0.0000000   0.7071069  )
         7        Mo     tau(   7) = (   0.5000000   0.5000000   0.7071069  )
         8        Mo     tau(   8) = (   0.5000000   0.5000000   0.0000000  )
         9        O      tau(   9) = (   0.2500000   0.7500000   0.0000000  )
        10        O      tau(  10) = (   0.2500000   0.2500000   0.0000000  )
        11        O      tau(  11) = (   0.7500000   0.2500000   0.7071069  )
        12        O      tau(  12) = (   0.7500000   0.7500000   0.7071069  )
        13        O      tau(  13) = (   0.7500000   0.2500000   0.0000000  )
        14        O      tau(  14) = (   0.7500000   0.7500000   0.0000000  )
        15        O      tau(  15) = (   0.2500000   0.7500000   0.7071069  )
        16        O      tau(  16) = (   0.2500000   0.2500000   0.7071069  )
        17        O      tau(  17) = (   0.0000000   0.0000000   0.3535535  )
        18        O      tau(  18) = (   0.0000000   0.0000000   1.0606604  )
        19        O      tau(  19) = (   0.5000000   0.5000000   1.0606604  )
        20        O      tau(  20) = (   0.5000000   0.5000000   0.3535535  )

   Crystallographic axes

     site n.     atom                  positions (cryst. coord.)
         1        Sr     tau(   1) = (  0.0000000  0.5000000  0.2500000  )
         2        Sr     tau(   2) = (  0.0000000  0.5000000  0.7500000  )
         3        Sr     tau(   3) = (  0.5000000  0.0000000  0.7500000  )
         4        Sr     tau(   4) = (  0.5000000  0.0000000  0.2500000  )
         5        Mo     tau(   5) = (  0.0000000  0.0000000  0.0000000  )
         6        Mo     tau(   6) = (  0.0000000  0.0000000  0.5000000  )
         7        Mo     tau(   7) = (  0.5000000  0.5000000  0.5000000  )
         8        Mo     tau(   8) = (  0.5000000  0.5000000  0.0000000  )
         9        O      tau(   9) = (  0.2500000  0.7500000  0.0000000  )
        10        O      tau(  10) = (  0.2500000  0.2500000  0.0000000  )
        11        O      tau(  11) = (  0.7500000  0.2500000  0.5000000  )
        12        O      tau(  12) = (  0.7500000  0.7500000  0.5000000  )
        13        O      tau(  13) = (  0.7500000  0.2500000  0.0000000  )
        14        O      tau(  14) = (  0.7500000  0.7500000  0.0000000  )
        15        O      tau(  15) = (  0.2500000  0.7500000  0.5000000  )
        16        O      tau(  16) = (  0.2500000  0.2500000  0.5000000  )
        17        O      tau(  17) = (  0.0000000  0.0000000  0.2500000  )
        18        O      tau(  18) = (  0.0000000  0.0000000  0.7500000  )
        19        O      tau(  19) = (  0.5000000  0.5000000  0.7500000  )
        20        O      tau(  20) = (  0.5000000  0.5000000  0.2500000  )

     number of k points=    71  Marzari-Vanderbilt smearing, width (Ry)=  0.0147
                       cart. coord. in units 2pi/alat
        k(    1) = (   0.0000000   0.0000000   0.0000000), wk =   0.0281690
        k(    2) = (   0.0000000   0.0500000   0.0000000), wk =   0.0281690
        k(    3) = (   0.0000000   0.1000000   0.0000000), wk =   0.0281690
        k(    4) = (   0.0000000   0.1500000   0.0000000), wk =   0.0281690
        k(    5) = (   0.0000000   0.2000000   0.0000000), wk =   0.0281690
        k(    6) = (   0.0000000   0.2500000   0.0000000), wk =   0.0281690
        k(    7) = (   0.0000000   0.3000000   0.0000000), wk =   0.0281690
        k(    8) = (   0.0000000   0.3500000   0.0000000), wk =   0.0281690
        k(    9) = (   0.0000000   0.4000000   0.0000000), wk =   0.0281690
        k(   10) = (   0.0000000   0.4500000   0.0000000), wk =   0.0281690
        k(   11) = (   0.0000000   0.5000000   0.0000000), wk =   0.0281690
        k(   12) = (   0.0500000   0.5000000   0.0000000), wk =   0.0281690
        k(   13) = (   0.1000000   0.5000000   0.0000000), wk =   0.0281690
        k(   14) = (   0.1500000   0.5000000   0.0000000), wk =   0.0281690
        k(   15) = (   0.2000000   0.5000000   0.0000000), wk =   0.0281690
        k(   16) = (   0.2500000   0.5000000   0.0000000), wk =   0.0281690
        k(   17) = (   0.3000000   0.5000000   0.0000000), wk =   0.0281690
        k(   18) = (   0.3500000   0.5000000   0.0000000), wk =   0.0281690
        k(   19) = (   0.4000000   0.5000000   0.0000000), wk =   0.0281690
        k(   20) = (   0.4500000   0.5000000   0.0000000), wk =   0.0281690
        k(   21) = (   0.5000000   0.5000000   0.0000000), wk =   0.0281690
        k(   22) = (   0.4500000   0.4500000   0.0000000), wk =   0.0281690
        k(   23) = (   0.4000000   0.4000000   0.0000000), wk =   0.0281690
        k(   24) = (   0.3500000   0.3500000   0.0000000), wk =   0.0281690
        k(   25) = (   0.3000000   0.3000000   0.0000000), wk =   0.0281690
        k(   26) = (   0.2500000   0.2500000   0.0000000), wk =   0.0281690
        k(   27) = (   0.2000000   0.2000000   0.0000000), wk =   0.0281690
        k(   28) = (   0.1500000   0.1500000   0.0000000), wk =   0.0281690
        k(   29) = (   0.1000000   0.1000000   0.0000000), wk =   0.0281690
        k(   30) = (   0.0500000   0.0500000   0.0000000), wk =   0.0281690
        k(   31) = (   0.0000000   0.0000000   0.0000000), wk =   0.0281690
        k(   32) = (   0.0000000   0.0000000   0.0353553), wk =   0.0281690
        k(   33) = (   0.0000000   0.0000000   0.0707107), wk =   0.0281690
        k(   34) = (   0.0000000   0.0000000   0.1060660), wk =   0.0281690
        k(   35) = (   0.0000000   0.0000000   0.1414213), wk =   0.0281690
        k(   36) = (   0.0000000   0.0000000   0.1767767), wk =   0.0281690
        k(   37) = (   0.0000000   0.0000000   0.2121320), wk =   0.0281690
        k(   38) = (   0.0000000   0.0000000   0.2474873), wk =   0.0281690
        k(   39) = (   0.0000000   0.0000000   0.2828427), wk =   0.0281690
        k(   40) = (   0.0000000   0.0000000   0.3181980), wk =   0.0281690
        k(   41) = (   0.0000000   0.0000000   0.3535533), wk =   0.0281690
        k(   42) = (   0.0000000   0.0500000   0.3535533), wk =   0.0281690
        k(   43) = (   0.0000000   0.1000000   0.3535533), wk =   0.0281690
        k(   44) = (   0.0000000   0.1500000   0.3535533), wk =   0.0281690
        k(   45) = (   0.0000000   0.2000000   0.3535533), wk =   0.0281690
        k(   46) = (   0.0000000   0.2500000   0.3535533), wk =   0.0281690
        k(   47) = (   0.0000000   0.3000000   0.3535533), wk =   0.0281690
        k(   48) = (   0.0000000   0.3500000   0.3535533), wk =   0.0281690
        k(   49) = (   0.0000000   0.4000000   0.3535533), wk =   0.0281690
        k(   50) = (   0.0000000   0.4500000   0.3535533), wk =   0.0281690
        k(   51) = (   0.0000000   0.5000000   0.3535533), wk =   0.0281690
        k(   52) = (   0.0500000   0.5000000   0.3535533), wk =   0.0281690
        k(   53) = (   0.1000000   0.5000000   0.3535533), wk =   0.0281690
        k(   54) = (   0.1500000   0.5000000   0.3535533), wk =   0.0281690
        k(   55) = (   0.2000000   0.5000000   0.3535533), wk =   0.0281690
        k(   56) = (   0.2500000   0.5000000   0.3535533), wk =   0.0281690
        k(   57) = (   0.3000000   0.5000000   0.3535533), wk =   0.0281690
        k(   58) = (   0.3500000   0.5000000   0.3535533), wk =   0.0281690
        k(   59) = (   0.4000000   0.5000000   0.3535533), wk =   0.0281690
        k(   60) = (   0.4500000   0.5000000   0.3535533), wk =   0.0281690
        k(   61) = (   0.5000000   0.5000000   0.3535533), wk =   0.0281690
        k(   62) = (   0.4500000   0.4500000   0.3535533), wk =   0.0281690
        k(   63) = (   0.4000000   0.4000000   0.3535533), wk =   0.0281690
        k(   64) = (   0.3500000   0.3500000   0.3535533), wk =   0.0281690
        k(   65) = (   0.3000000   0.3000000   0.3535533), wk =   0.0281690
        k(   66) = (   0.2500000   0.2500000   0.3535533), wk =   0.0281690
        k(   67) = (   0.2000000   0.2000000   0.3535533), wk =   0.0281690
        k(   68) = (   0.1500000   0.1500000   0.3535533), wk =   0.0281690
        k(   69) = (   0.1000000   0.1000000   0.3535533), wk =   0.0281690
        k(   70) = (   0.0500000   0.0500000   0.3535533), wk =   0.0281690
        k(   71) = (   0.0000000   0.0000000   0.3535533), wk =   0.0281690

                       cryst. coord.
        k(    1) = (   0.0000000   0.0000000   0.0000000), wk =   0.0281690
        k(    2) = (   0.0000000   0.0500000   0.0000000), wk =   0.0281690
        k(    3) = (   0.0000000   0.1000000   0.0000000), wk =   0.0281690
        k(    4) = (   0.0000000   0.1500000   0.0000000), wk =   0.0281690
        k(    5) = (   0.0000000   0.2000000   0.0000000), wk =   0.0281690
        k(    6) = (   0.0000000   0.2500000   0.0000000), wk =   0.0281690
        k(    7) = (   0.0000000   0.3000000   0.0000000), wk =   0.0281690
        k(    8) = (   0.0000000   0.3500000   0.0000000), wk =   0.0281690
        k(    9) = (   0.0000000   0.4000000   0.0000000), wk =   0.0281690
        k(   10) = (   0.0000000   0.4500000   0.0000000), wk =   0.0281690
        k(   11) = (   0.0000000   0.5000000   0.0000000), wk =   0.0281690
        k(   12) = (   0.0500000   0.5000000   0.0000000), wk =   0.0281690
        k(   13) = (   0.1000000   0.5000000   0.0000000), wk =   0.0281690
        k(   14) = (   0.1500000   0.5000000   0.0000000), wk =   0.0281690
        k(   15) = (   0.2000000   0.5000000   0.0000000), wk =   0.0281690
        k(   16) = (   0.2500000   0.5000000   0.0000000), wk =   0.0281690
        k(   17) = (   0.3000000   0.5000000   0.0000000), wk =   0.0281690
        k(   18) = (   0.3500000   0.5000000   0.0000000), wk =   0.0281690
        k(   19) = (   0.4000000   0.5000000   0.0000000), wk =   0.0281690
        k(   20) = (   0.4500000   0.5000000   0.0000000), wk =   0.0281690
        k(   21) = (   0.5000000   0.5000000   0.0000000), wk =   0.0281690
        k(   22) = (   0.4500000   0.4500000   0.0000000), wk =   0.0281690
        k(   23) = (   0.4000000   0.4000000   0.0000000), wk =   0.0281690
        k(   24) = (   0.3500000   0.3500000   0.0000000), wk =   0.0281690
        k(   25) = (   0.3000000   0.3000000   0.0000000), wk =   0.0281690
        k(   26) = (   0.2500000   0.2500000   0.0000000), wk =   0.0281690
        k(   27) = (   0.2000000   0.2000000   0.0000000), wk =   0.0281690
        k(   28) = (   0.1500000   0.1500000   0.0000000), wk =   0.0281690
        k(   29) = (   0.1000000   0.1000000   0.0000000), wk =   0.0281690
        k(   30) = (   0.0500000   0.0500000   0.0000000), wk =   0.0281690
        k(   31) = (   0.0000000   0.0000000   0.0000000), wk =   0.0281690
        k(   32) = (   0.0000000   0.0000000   0.0500000), wk =   0.0281690
        k(   33) = (   0.0000000   0.0000000   0.1000000), wk =   0.0281690
        k(   34) = (   0.0000000   0.0000000   0.1500000), wk =   0.0281690
        k(   35) = (   0.0000000   0.0000000   0.2000000), wk =   0.0281690
        k(   36) = (   0.0000000   0.0000000   0.2500000), wk =   0.0281690
        k(   37) = (   0.0000000   0.0000000   0.3000000), wk =   0.0281690
        k(   38) = (   0.0000000   0.0000000   0.3500000), wk =   0.0281690
        k(   39) = (   0.0000000   0.0000000   0.4000000), wk =   0.0281690
        k(   40) = (   0.0000000   0.0000000   0.4500000), wk =   0.0281690
        k(   41) = (   0.0000000   0.0000000   0.5000000), wk =   0.0281690
        k(   42) = (   0.0000000   0.0500000   0.5000000), wk =   0.0281690
        k(   43) = (   0.0000000   0.1000000   0.5000000), wk =   0.0281690
        k(   44) = (   0.0000000   0.1500000   0.5000000), wk =   0.0281690
        k(   45) = (   0.0000000   0.2000000   0.5000000), wk =   0.0281690
        k(   46) = (   0.0000000   0.2500000   0.5000000), wk =   0.0281690
        k(   47) = (   0.0000000   0.3000000   0.5000000), wk =   0.0281690
        k(   48) = (   0.0000000   0.3500000   0.5000000), wk =   0.0281690
        k(   49) = (   0.0000000   0.4000000   0.5000000), wk =   0.0281690
        k(   50) = (   0.0000000   0.4500000   0.5000000), wk =   0.0281690
        k(   51) = (   0.0000000   0.5000000   0.5000000), wk =   0.0281690
        k(   52) = (   0.0500000   0.5000000   0.5000000), wk =   0.0281690
        k(   53) = (   0.1000000   0.5000000   0.5000000), wk =   0.0281690
        k(   54) = (   0.1500000   0.5000000   0.5000000), wk =   0.0281690
        k(   55) = (   0.2000000   0.5000000   0.5000000), wk =   0.0281690
        k(   56) = (   0.2500000   0.5000000   0.5000000), wk =   0.0281690
        k(   57) = (   0.3000000   0.5000000   0.5000000), wk =   0.0281690
        k(   58) = (   0.3500000   0.5000000   0.5000000), wk =   0.0281690
        k(   59) = (   0.4000000   0.5000000   0.5000000), wk =   0.0281690
        k(   60) = (   0.4500000   0.5000000   0.5000000), wk =   0.0281690
        k(   61) = (   0.5000000   0.5000000   0.5000000), wk =   0.0281690
        k(   62) = (   0.4500000   0.4500000   0.5000000), wk =   0.0281690
        k(   63) = (   0.4000000   0.4000000   0.5000000), wk =   0.0281690
        k(   64) = (   0.3500000   0.3500000   0.5000000), wk =   0.0281690
        k(   65) = (   0.3000000   0.3000000   0.5000000), wk =   0.0281690
        k(   66) = (   0.2500000   0.2500000   0.5000000), wk =   0.0281690
        k(   67) = (   0.2000000   0.2000000   0.5000000), wk =   0.0281690
        k(   68) = (   0.1500000   0.1500000   0.5000000), wk =   0.0281690
        k(   69) = (   0.1000000   0.1000000   0.5000000), wk =   0.0281690
        k(   70) = (   0.0500000   0.0500000   0.5000000), wk =   0.0281690
        k(   71) = (   0.0000000   0.0000000   0.5000000), wk =   0.0281690

     Dense  grid:   419469 G-vectors     FFT dimensions: (  90,  90, 120)

     Smooth grid:   148351 G-vectors     FFT dimensions: (  60,  60,  90)

     Dynamical RAM for                 wfc:      28.54 MB

     Dynamical RAM for     wfc (w. buffer):      28.54 MB

     Dynamical RAM for           str. fact:      19.20 MB

     Dynamical RAM for           local pot:       0.00 MB

     Dynamical RAM for          nlocal pot:      67.83 MB

     Dynamical RAM for                qrad:       5.90 MB

     Dynamical RAM for          rho,v,vnew:      41.45 MB

     Dynamical RAM for           G-vectors:      25.13 MB

     Dynamical RAM for          h,s,v(r/c):       1.87 MB

     Dynamical RAM for          <psi|beta>:       0.37 MB

     Dynamical RAM for                 psi:      57.09 MB

     Dynamical RAM for                hpsi:      57.09 MB

     Dynamical RAM for                spsi:      57.09 MB

     Dynamical RAM for      wfcinit/wfcrot:      57.32 MB

     Dynamical RAM for           addusdens:      16.25 MB

     Estimated static dynamical RAM per process >     250.73 MB

     Estimated max dynamical RAM per process >     424.23 MB

     Estimated total dynamical RAM >      53.03 GB

     The potential is recalculated from file :
     ./out/smo.save/charge-density

     Starting wfcs are  120 randomized atomic wfcs
     Checking if some PAW data can be deallocated... 
       PAW data deallocated on  100 nodes for type:  1
       PAW data deallocated on  100 nodes for type:  2
       PAW data deallocated on   56 nodes for type:  3

     Band Structure Calculation
     Davidson diagonalization with overlap

     Computing kpt #:     1  of     1 on this pool
     c_bands:  1 eigenvalues not converged
     total cpu time spent up to now is      101.1 secs

     ethr =  2.38E-13,  avg # of iterations =118.5

     total cpu time spent up to now is      118.0 secs

     End of band structure calculation

          k = 0.0000 0.0000 0.0000 ( 18577 PWs)   bands (ev):

   -48.9246 -48.9232 -48.9220 -48.9206 -23.2537 -23.2351 -23.2301 -23.2301
   -23.2259 -23.2259 -23.1610 -23.1541 -23.1517 -23.1517 -23.1482 -23.1482
   -22.1413 -22.1090 -22.1059 -22.0904  -6.9691  -6.7315  -6.2634  -6.0399
    -6.0382  -6.0030  -5.7510  -5.7510  -5.3073  -5.2754  -5.2730  -5.2730
    -4.4134  -4.4134  -4.4113  -4.1630  -4.1630  -4.1612  -4.1265  -4.1265
    -4.0708  -3.7659  -3.7659  -3.6567   5.1587   5.1714   5.1753   5.2705
     5.3650   5.4094   5.5997   6.2303   6.2303   6.2352   7.1721   7.1721
     7.6170   7.6170   7.7476   7.7476   7.7862   7.7891   7.7891   7.8449
     8.3631   8.7288   8.7288   8.7496   9.1138   9.1158   9.1158   9.4792
     9.4792   9.7647   9.7673   9.7673  10.1975  10.2742  10.2742  10.2774
    11.6596  11.6596  11.6662  11.8724  14.3760  14.3760  14.4038  14.4038
    15.1683  15.4685  15.4685  15.4748  15.4749  15.4806  15.4981  15.6527
    15.6560  15.8885  16.6391  17.0697  17.0716

          k = 0.0000 0.0500 0.0000 ( 18595 PWs)   bands (ev):

   -48.9245 -48.9232 -48.9220 -48.9206 -23.2535 -23.2351 -23.2298 -23.2296
   -23.2254 -23.2254 -23.1609 -23.1541 -23.1524 -23.1522 -23.1487 -23.1487
   -22.1409 -22.1090 -22.1060 -22.0906  -6.9613  -6.7307  -6.2744  -6.0388
    -6.0362  -5.9990  -5.7525  -5.7452  -5.3143  -5.2918  -5.2853  -5.2781
    -4.4117  -4.3994  -4.3992  -4.1614  -4.1607  -4.1568  -4.1283  -4.1182
    -4.0715  -3.7693  -3.7672  -3.6595   5.1755   5.1765   5.1920   5.2701
     5.3820   5.4237   5.6123   6.2242   6.2336   6.2425   7.1770   7.1796
     7.4826   7.5781   7.7301   7.7447   7.7696   7.7810   7.7835   7.9769
     8.4078   8.7195   8.7295   8.7529   9.0804   9.0897   9.1163   9.4387
     9.4559   9.7288   9.7428   9.7521  10.1878  10.2625  10.2626  10.2698
    11.6802  11.6886  11.7127  11.9134  14.3763  14.3776  14.3872  14.3913
    15.1497  15.4520  15.4526  15.4578  15.4899  15.5246  15.5413  15.6736
    15.6773  15.9184  16.6374  17.0884  17.0955

          k = 0.0000 0.1000 0.0000 ( 18565 PWs)   bands (ev):

   -48.9245 -48.9232 -48.9220 -48.9207 -23.2530 -23.2353 -23.2288 -23.2282
   -23.2241 -23.2240 -23.1608 -23.1543 -23.1542 -23.1537 -23.1502 -23.1501
   -22.1397 -22.1089 -22.1061 -22.0912  -6.9380  -6.7283  -6.3045  -6.0354
    -6.0303  -5.9871  -5.7569  -5.7307  -5.3450  -5.3341  -5.3124  -5.2933
    -4.4065  -4.3665  -4.3596  -4.1594  -4.1565  -4.1386  -4.1337  -4.0946
    -4.0735  -3.7795  -3.7709  -3.6678   5.1900   5.2253   5.2417   5.2690
     5.4282   5.4709   5.6515   6.2064   6.2436   6.2649   7.1917   7.2023
     7.2771   7.4821   7.6793   7.7123   7.7340   7.7553   7.7756   8.1761
     8.5207   8.6928   8.7317   8.7629   8.9781   9.0210   9.1178   9.3239
     9.3914   9.6243   9.6742   9.7162  10.1593  10.2189  10.2289  10.2568
    11.7404  11.7720  11.8404  12.0290  14.3378  14.3539  14.3782  14.3829
    15.0941  15.3859  15.4076  15.4264  15.5328  15.6519  15.6675  15.7372
    15.7406  16.0071  16.6317  17.1380  17.1630

          k = 0.0000 0.1500 0.0000 ( 18557 PWs)   bands (ev):

   -48.9244 -48.9231 -48.9221 -48.9208 -23.2522 -23.2356 -23.2271 -23.2259
   -23.2218 -23.2217 -23.1606 -23.1574 -23.1561 -23.1544 -23.1526 -23.1525
   -22.1377 -22.1086 -22.1063 -22.0921  -6.8994  -6.7247  -6.3478  -6.0282
    -6.0205  -5.9675  -5.7642  -5.7136  -5.4254  -5.3637  -5.3508  -5.3180
    -4.3981  -4.3190  -4.3012  -4.1572  -4.1482  -4.1424  -4.1103  -4.0767
    -4.0597  -3.7960  -3.7764  -3.6816   5.2070   5.2674   5.3074   5.3237
     5.4934   5.5595   5.7201   6.1793   6.2603   6.3033   7.0693   7.2156
     7.2400   7.3609   7.5991   7.6203   7.7083   7.7091   7.7623   8.3752
     8.6523   8.6692   8.7356   8.7795   8.8193   8.9165   9.1203   9.1501
     9.3005   9.4763   9.5750   9.6609  10.1132  10.1488  10.1753  10.2345
    11.8360  11.9005  12.0240  12.2028  14.2569  14.2921  14.3835  14.3930
    15.0030  15.2832  15.3401  15.3754  15.5978  15.8214  15.8434  15.8677
    15.8738  16.1503  16.6206  17.2180  17.2667

          k = 0.0000 0.2000 0.0000 ( 18509 PWs)   bands (ev):

   -48.9243 -48.9230 -48.9222 -48.9209 -23.2511 -23.2360 -23.2247 -23.2227
   -23.2187 -23.2185 -23.1615 -23.1603 -23.1593 -23.1559 -23.1557 -23.1547
   -22.1352 -22.1083 -22.1067 -22.0933  -6.8462  -6.7201  -6.3978  -6.0160
    -6.0073  -5.9406  -5.7743  -5.7003  -5.5256  -5.3989  -5.3939  -5.3514
    -4.3865  -4.2631  -4.2319  -4.1544  -4.1541  -4.1366  -4.0811  -4.0743
    -4.0185  -3.8178  -3.7830  -3.7007   5.2228   5.2654   5.4200   5.4364
     5.5764   5.6879   5.8192   6.1464   6.2840   6.3597   6.8700   7.2328
     7.2476   7.2925   7.4950   7.4980   7.6346   7.6596   7.7438   8.5661
     8.6036   8.6173   8.7416   8.7868   8.8032   8.8333   8.9337   9.1219
     9.2049   9.3058   9.4655   9.5914  10.0516  10.0563  10.1052  10.2023
    11.9616  12.0630  12.2406  12.4170  14.1469  14.2067  14.3949  14.4097
    14.8790  15.1510  15.2569  15.3071  15.6793  15.9675  15.9817  16.1292
    16.1342  16.3397  16.6020  17.3247  17.3970

          k = 0.0000 0.2500 0.0000 ( 18505 PWs)   bands (ev):

   -48.9242 -48.9228 -48.9223 -48.9210 -23.2497 -23.2365 -23.2216 -23.2187
   -23.2149 -23.2146 -23.1665 -23.1633 -23.1600 -23.1599 -23.1597 -23.1551
   -22.1321 -22.1078 -22.1074 -22.0947  -6.7790  -6.7145  -6.4496  -5.9974
    -5.9910  -5.9068  -5.7871  -5.6952  -5.6394  -5.4365  -5.4357  -5.3923
    -4.3721  -4.2035  -4.1692  -4.1587  -4.1502  -4.1218  -4.0864  -4.0337
    -3.9764  -3.8441  -3.7903  -3.7252   5.2349   5.2631   5.5609   5.5779
     5.6787   5.8508   5.9454   6.1123   6.3150   6.4376   6.6853   7.1065
     7.2866   7.3510   7.3595   7.3735   7.5287   7.5737   7.7200   8.3845
     8.5531   8.6415   8.6877   8.7463   8.7501   8.8341   9.0025   9.1139
     9.1280   9.1289   9.3730   9.5125   9.9459   9.9772  10.0220  10.1595
    12.1119  12.2491  12.4746  12.6572  14.0104  14.0988  14.4150  14.4349
    14.7259  14.9946  15.1638  15.2244  15.7721  16.1423  16.1503  16.4385
    16.4504  16.5644  16.5739  17.4534  17.5452

          k = 0.0000 0.3000 0.0000 ( 18523 PWs)   bands (ev):

   -48.9240 -48.9227 -48.9225 -48.9212 -23.2482 -23.2373 -23.2179 -23.2141
   -23.2104 -23.2100 -23.1721 -23.1680 -23.1647 -23.1643 -23.1595 -23.1555
   -22.1288 -22.1083 -22.1072 -22.0963  -6.7076  -6.6987  -6.4997  -5.9722
    -5.9718  -5.8667  -5.8025  -5.7618  -5.7007  -5.4748  -5.4707  -5.4395
    -4.3552  -4.1866  -4.1455  -4.1430  -4.1036  -4.0925  -4.0872  -3.9916
    -3.9384  -3.8736  -3.7983  -3.7547   5.2431   5.2608   5.7274   5.7456
     5.8003   6.0437   6.0821   6.0907   6.3538   6.5196   6.5426   6.9861
     7.1851   7.2405   7.3310   7.3879   7.4405   7.4434   7.6909   8.1305
     8.4225   8.4884   8.5080   8.7619   8.8726   8.9150   8.9587   9.0786
     9.0880   9.1701   9.3297   9.4287   9.8229   9.8930   9.9287  10.1049
    12.2818  12.4500  12.7166  12.9125  13.8514  13.9698  14.4457  14.4704
    14.5484  14.8177  15.0654  15.1311  15.8718  16.3430  16.3489  16.5350
    16.7824  16.8040  16.8127  17.5987  17.7037

          k = 0.0000 0.3500 0.0000 ( 18495 PWs)   bands (ev):

   -48.9238 -48.9227 -48.9225 -48.9213 -23.2466 -23.2381 -23.2135 -23.2089
   -23.2053 -23.2048 -23.1782 -23.1733 -23.1700 -23.1696 -23.1591 -23.1559
   -22.1254 -22.1096 -22.1064 -22.0980  -6.6986  -6.6065  -6.5457  -5.9514
    -5.9394  -5.8893  -5.8211  -5.8201  -5.7173  -5.5062  -5.5011  -5.4914
    -4.3362  -4.2060  -4.1401  -4.0991  -4.0834  -4.0822  -4.0221  -3.9508
    -3.9087  -3.9052  -3.8075  -3.7892   5.2482   5.2587   5.9160   5.9363
     5.9399   6.0614   6.2434   6.2625   6.3768   6.4006   6.6822   6.8740
     7.0060   7.1011   7.2142   7.2704   7.3790   7.5351   7.6569   7.8623
     8.1464   8.3332   8.4753   8.7777   8.8056   8.9188   9.0186   9.0723
     9.0920   9.3315   9.3414   9.3433   9.6927   9.8027   9.8274  10.0374
    12.4670  12.6588  12.9610  13.1745  13.6738  13.8215  14.3512  14.4883
    14.5179  14.6227  14.9655  15.0312  15.9744  16.4844  16.5527  16.5848
    17.0738  17.1476  17.1833  17.7541  17.7961

          k = 0.0000 0.4000 0.0000 ( 18530 PWs)   bands (ev):

   -48.9237 -48.9229 -48.9223 -48.9215 -23.2450 -23.2392 -23.2086 -23.2032
   -23.1997 -23.1992 -23.1846 -23.1790 -23.1757 -23.1752 -23.1586 -23.1564
   -22.1220 -22.1113 -22.1054 -22.0997  -6.6865  -6.5862  -6.5035  -6.0185
    -5.9292  -5.9016  -5.8398  -5.7709  -5.7440  -5.5467  -5.5292  -5.5247
    -4.3156  -4.2269  -4.1340  -4.1062  -4.0579  -4.0258  -3.9672  -3.9376
    -3.9135  -3.8906  -3.8284  -3.8192   5.2511   5.2569   6.0556   6.0955
     6.1226   6.1462   6.2596   6.3933   6.4560   6.5027   6.7710   6.8194
     6.8616   6.9594   7.0138   7.0644   7.4291   7.5860   7.6181   7.6426
     7.8666   8.1802   8.4612   8.6770   8.7984   8.9564   8.9728   9.1366
     9.2189   9.2593   9.3867   9.4834   9.5609   9.7096   9.7194   9.9560
    12.6635  12.8700  13.2048  13.4371  13.4821  13.6558  14.1388  14.4112
    14.5431  14.5782  14.8673  14.9292  16.0763  16.4223  16.7722  16.8470
    17.3379  17.5184  17.5787  17.6177  17.9100

          k = 0.0000 0.4500 0.0000 ( 18522 PWs)   bands (ev):

   -48.9235 -48.9230 -48.9221 -48.9217 -23.2434 -23.2405 -23.2031 -23.1972
   -23.1939 -23.1933 -23.1909 -23.1850 -23.1817 -23.1812 -23.1580 -23.1569
   -22.1188 -22.1134 -22.1042 -22.1013  -6.6701  -6.6205  -6.3914  -6.1469
    -5.9064  -5.8611  -5.8604  -5.7786  -5.7171  -5.6037  -5.5426  -5.5401
    -4.2938  -4.2489  -4.1275  -4.1134  -4.0307  -3.9711  -3.9700  -3.9253
    -3.8867  -3.8814  -3.8719  -3.8346   5.2529   5.2554   6.0693   6.1693
     6.2646   6.3422   6.3707   6.5205   6.5371   6.6305   6.6777   6.7600
     6.7957   6.8180   6.8382   7.0787   7.3067   7.4794   7.5751   7.5903
     7.7621   8.0325   8.4711   8.5776   8.8252   8.9028   9.0345   9.1787
     9.2139   9.3558   9.4331   9.4520   9.6051   9.6176   9.6231   9.8600
    12.8673  13.0789  13.2808  13.4463  13.4750  13.6953  13.9153  14.1850
    14.6098  14.6512  14.7738  14.8293  16.1743  16.3491  16.9944  17.1319
    17.4221  17.5958  17.7564  17.8633  17.9818

          k = 0.0000 0.5000 0.0000 ( 18550 PWs)   bands (ev):

   -48.9233 -48.9232 -48.9219 -48.9219 -23.2419 -23.2418 -23.1972 -23.1971
   -23.1911 -23.1911 -23.1878 -23.1878 -23.1873 -23.1872 -23.1575 -23.1575
   -22.1159 -22.1159 -22.1028 -22.1028  -6.6483  -6.6483  -6.2719  -6.2719
    -5.8834  -5.8834  -5.8185  -5.8184  -5.6609  -5.6609  -5.5463  -5.5463
    -4.2714  -4.2714  -4.1206  -4.1206  -4.0012  -4.0012  -3.9196  -3.9196
    -3.8982  -3.8982  -3.8551  -3.8551   5.2542   5.2542   6.1063   6.1063
     6.4441   6.4441   6.5689   6.5689   6.5942   6.5943   6.6039   6.6039
     6.6776   6.6776   7.0296   7.0296   7.3248   7.3248   7.5285   7.5285
     7.8925   7.8925   8.5091   8.5091   8.8594   8.8595   9.1034   9.1034
     9.3152   9.3152   9.4841   9.4841   9.5304   9.5304   9.7489   9.7489
    13.0744  13.0744  13.2817  13.2817  13.6836  13.6837  13.9456  13.9456
    14.6872  14.6872  14.7356  14.7356  16.2659  16.2659  17.2128  17.2128
    17.4362  17.4362  17.8370  17.8370  18.0756

          k = 0.0500 0.5000 0.0000 ( 18528 PWs)   bands (ev):

   -48.9233 -48.9232 -48.9219 -48.9219 -23.2418 -23.2418 -23.2023 -23.2023
   -23.1942 -23.1942 -23.1861 -23.1861 -23.1808 -23.1808 -23.1575 -23.1575
   -22.1158 -22.1158 -22.1029 -22.1029  -6.6597  -6.6596  -6.2716  -6.2716
    -5.8967  -5.8967  -5.7926  -5.7926  -5.6633  -5.6633  -5.5524  -5.5524
    -4.2640  -4.2640  -4.1207  -4.1207  -4.0061  -4.0061  -3.9157  -3.9157
    -3.8964  -3.8964  -3.8481  -3.8481   5.2535   5.2536   6.0723   6.0723
     6.3368   6.3368   6.4464   6.4464   6.6255   6.6255   6.6336   6.6336
     6.7941   6.7941   7.0807   7.0807   7.3786   7.3786   7.5299   7.5299
     7.8892   7.8892   8.5001   8.5002   8.8668   8.8668   9.1117   9.1118
     9.3012   9.3012   9.4348   9.4348   9.5041   9.5041   9.7901   9.7901
    12.9644  12.9644  13.3898  13.3898  13.7038  13.7038  13.9584  13.9584
    14.6579  14.6579  14.7689  14.7689  16.2515  16.2516  17.2202  17.2202
    17.4329  17.4329  17.8410  17.8410  17.9722

          k = 0.1000 0.5000 0.0000 ( 18512 PWs)   bands (ev):

   -48.9233 -48.9232 -48.9219 -48.9219 -23.2416 -23.2416 -23.2095 -23.2095
   -23.2007 -23.2007 -23.1792 -23.1791 -23.1743 -23.1743 -23.1575 -23.1575
   -22.1153 -22.1153 -22.1031 -22.1031  -6.6907  -6.6907  -6.2708  -6.2708
    -5.9167  -5.9166  -5.7378  -5.7378  -5.6701  -5.6701  -5.5699  -5.5698
    -4.2434  -4.2434  -4.1209  -4.1209  -4.0187  -4.0187  -3.9043  -3.9043
    -3.8911  -3.8911  -3.8294  -3.8294   5.2516   5.2517   5.9898   5.9898
     6.1643   6.1643   6.2440   6.2440   6.6997   6.6997   6.7084   6.7084
     6.8876   6.8876   7.2023   7.2023   7.5254   7.5254   7.5342   7.5342
     7.8798   7.8798   8.4727   8.4727   8.8910   8.8911   9.1362   9.1362
     9.2606   9.2606   9.3326   9.3327   9.4278   9.4278   9.8686   9.8686
    12.7918  12.7918  13.5567  13.5567  13.7610  13.7610  13.9951  13.9951
    14.6159  14.6159  14.8223  14.8223  16.2076  16.2076  17.2414  17.2414
    17.4246  17.4246  17.7975  17.7976  17.8570

          k = 0.1500 0.5000 0.0000 ( 18510 PWs)   bands (ev):

   -48.9233 -48.9232 -48.9219 -48.9219 -23.2413 -23.2413 -23.2167 -23.2167
   -23.2069 -23.2069 -23.1725 -23.1725 -23.1682 -23.1682 -23.1575 -23.1575
   -22.1145 -22.1145 -22.1035 -22.1035  -6.7349  -6.7349  -6.2696  -6.2696
    -5.9345  -5.9345  -5.6805  -5.6805  -5.6695  -5.6695  -5.5958  -5.5958
    -4.2134  -4.2134  -4.1214  -4.1214  -4.0352  -4.0352  -3.8868  -3.8868
    -3.8816  -3.8816  -3.8037  -3.8037   5.2483   5.2483   5.8869   5.8869
     5.9847   5.9847   6.0450   6.0450   6.7835   6.7835   6.7895   6.7895
     6.9472   6.9472   7.3433   7.3433   7.5412   7.5412   7.7258   7.7258
     7.8651   7.8651   8.4270   8.4270   8.9361   8.9361   9.1747   9.1747
     9.1974   9.1974   9.2173   9.2173   9.3100   9.3100   9.9478   9.9478
    12.6161  12.6161  13.7229  13.7229  13.8472  13.8472  14.0510  14.0510
    14.5749  14.5749  14.8807  14.8807  16.1335  16.1335  17.2734  17.2734
    17.4161  17.4161  17.6061  17.6061  17.8889

          k = 0.2000 0.5000 0.0000 ( 18506 PWs)   bands (ev):

   -48.9233 -48.9232 -48.9219 -48.9219 -23.2410 -23.2409 -23.2234 -23.2234
   -23.2126 -23.2126 -23.1665 -23.1664 -23.1624 -23.1624 -23.1575 -23.1575
   -22.1135 -22.1135 -22.1039 -22.1039  -6.7849  -6.7849  -6.2681  -6.2681
    -5.9505  -5.9505  -5.6933  -5.6933  -5.6268  -5.6268  -5.5949  -5.5949
    -4.1794  -4.1794  -4.1220  -4.1220  -4.0532  -4.0532  -3.8677  -3.8677
    -3.8648  -3.8648  -3.7746  -3.7746   5.2430   5.2430   5.7798   5.7798
     5.8134   5.8134   5.8609   5.8609   6.8710   6.8710   6.8798   6.8798
     6.9938   6.9938   7.4728   7.4728   7.5507   7.5507   7.8464   7.8464
     7.9438   7.9438   8.3662   8.3662   8.9979   8.9979   9.1029   9.1029
     9.1179   9.1179   9.1670   9.1670   9.2239   9.2239  10.0173  10.0173
    12.4468  12.4468  13.8790  13.8790  13.9511  13.9511  14.1195  14.1195
    14.5360  14.5360  14.9408  14.9408  16.0325  16.0325  17.3119  17.3119
    17.4072  17.4072  17.4133  17.4133  17.9326

          k = 0.2500 0.5000 0.0000 ( 18562 PWs)   bands (ev):

   -48.9233 -48.9232 -48.9219 -48.9219 -23.2406 -23.2406 -23.2295 -23.2295
   -23.2176 -23.2176 -23.1611 -23.1611 -23.1575 -23.1575 -23.1573 -23.1573
   -22.1124 -22.1124 -22.1044 -22.1044  -6.8349  -6.8349  -6.2664  -6.2664
    -5.9651  -5.9651  -5.7073  -5.7073  -5.6592  -5.6592  -5.5201  -5.5201
    -4.1465  -4.1465  -4.1226  -4.1226  -4.0713  -4.0713  -3.8492  -3.8492
    -3.8408  -3.8408  -3.7449  -3.7449   5.2351   5.2351   5.6584   5.6584
     5.6774   5.6774   5.6994   5.6994   6.9633   6.9633   6.9753   6.9753
     7.0366   7.0366   7.5624   7.5624   7.5773   7.5773   7.8253   7.8253
     8.1579   8.1579   8.2956   8.2956   8.9599   8.9599   8.9969   8.9969
     9.0293   9.0293   9.1239   9.1239   9.2799   9.2799  10.0748  10.0748
    12.2894  12.2894  14.0201  14.0201  14.0607  14.0607  14.1927  14.1927
    14.5000  14.5000  14.9993  14.9993  15.9132  15.9132  17.2102  17.2102
    17.3525  17.3525  17.4190  17.4190  17.9788

          k = 0.3000 0.5000 0.0000 ( 18510 PWs)   bands (ev):

   -48.9233 -48.9232 -48.9219 -48.9219 -23.2402 -23.2402 -23.2347 -23.2347
   -23.2220 -23.2220 -23.1575 -23.1574 -23.1566 -23.1566 -23.1530 -23.1530
   -22.1113 -22.1113 -22.1049 -22.1049  -6.8804  -6.8804  -6.2647  -6.2647
    -5.9781  -5.9780  -5.7209  -5.7209  -5.6898  -5.6897  -5.4504  -5.4504
    -4.1232  -4.1232  -4.1186  -4.1186  -4.0884  -4.0884  -3.8272  -3.8272
    -3.8169  -3.8169  -3.7169  -3.7169   5.2232   5.2232   5.5253   5.5253
     5.5667   5.5667   5.5857   5.5857   7.0355   7.0356   7.0777   7.0777
     7.0970   7.0970   7.5756   7.5756   7.6530   7.6530   7.8032   7.8032
     8.2193   8.2193   8.3536   8.3536   8.7902   8.7902   8.9045   8.9045
     8.9399   8.9399   9.2164   9.2164   9.3376   9.3377  10.1200  10.1200
    12.1490  12.1490  14.1421  14.1421  14.1651  14.1651  14.2632  14.2633
    14.4680  14.4680  15.0529  15.0529  15.7882  15.7882  17.0265  17.0265
    17.3910  17.3910  17.4320  17.4320  18.0193

          k = 0.3500 0.5000 0.0000 ( 18498 PWs)   bands (ev):

   -48.9233 -48.9232 -48.9219 -48.9219 -23.2398 -23.2398 -23.2390 -23.2390
   -23.2255 -23.2255 -23.1575 -23.1574 -23.1530 -23.1530 -23.1495 -23.1495
   -22.1103 -22.1103 -22.1053 -22.1053  -6.9185  -6.9185  -6.2631  -6.2631
    -5.9890  -5.9890  -5.7329  -5.7329  -5.7160  -5.7160  -5.3903  -5.3903
    -4.1238  -4.1238  -4.1037  -4.1037  -4.0975  -4.0975  -3.8045  -3.8045
    -3.7956  -3.7956  -3.6928  -3.6928   5.2057   5.2057   5.4180   5.4180
     5.4679   5.4679   5.5094   5.5094   7.0940   7.0940   7.1158   7.1158
     7.2342   7.2342   7.5896   7.5896   7.7021   7.7021   7.7817   7.7817
     8.1371   8.1371   8.5196   8.5196   8.6205   8.6205   8.8293   8.8293
     8.8579   8.8579   9.3161   9.3161   9.3916   9.3917  10.1536  10.1536
    12.0311  12.0311  14.2414  14.2414  14.2552  14.2552  14.3244  14.3244
    14.4414  14.4414  15.0983  15.0983  15.6715  15.6716  16.8683  16.8683
    17.4243  17.4243  17.4486  17.4486  18.0500

          k = 0.4000 0.5000 0.0000 ( 18490 PWs)   bands (ev):

   -48.9233 -48.9232 -48.9219 -48.9219 -23.2421 -23.2421 -23.2395 -23.2395
   -23.2280 -23.2280 -23.1575 -23.1574 -23.1503 -23.1503 -23.1469 -23.1469
   -22.1096 -22.1096 -22.1056 -22.1056  -6.9471  -6.9470  -6.2619  -6.2619
    -5.9973  -5.9973  -5.7424  -5.7424  -5.7361  -5.7360  -5.3441  -5.3441
    -4.1242  -4.1242  -4.1158  -4.1158  -4.0834  -4.0834  -3.7847  -3.7847
    -3.7788  -3.7788  -3.6742  -3.6742   5.1835   5.1835   5.3393   5.3393
     5.4050   5.4050   5.4520   5.4520   7.1368   7.1368   7.1476   7.1476
     7.3828   7.3828   7.6030   7.6030   7.7300   7.7300   7.7627   7.7627
     8.0406   8.0406   8.4806   8.4806   8.6463   8.6463   8.7739   8.7739
     8.7916   8.7916   9.4011   9.4011   9.4361   9.4361  10.1766  10.1766
    11.9411  11.9411  14.3148  14.3148  14.3240  14.3241  14.3712  14.3713
    14.4214  14.4214  15.1329  15.1329  15.5768  15.5768  16.7464  16.7464
    17.4497  17.4497  17.4647  17.4647  18.0702

          k = 0.4500 0.5000 0.0000 ( 18536 PWs)   bands (ev):

   -48.9233 -48.9232 -48.9219 -48.9219 -23.2440 -23.2440 -23.2394 -23.2393
   -23.2296 -23.2296 -23.1575 -23.1574 -23.1488 -23.1488 -23.1453 -23.1453
   -22.1091 -22.1091 -22.1059 -22.1059  -6.9647  -6.9647  -6.2611  -6.2611
    -6.0025  -6.0025  -5.7486  -5.7486  -5.7483  -5.7483  -5.3149  -5.3149
    -4.1245  -4.1245  -4.1237  -4.1237  -4.0753  -4.0753  -3.7711  -3.7711
    -3.7681  -3.7681  -3.6625  -3.6625   5.1637   5.1637   5.2913   5.2913
     5.3729   5.3729   5.4165   5.4165   7.1629   7.1629   7.1689   7.1689
     7.5317   7.5317   7.6133   7.6133   7.7429   7.7429   7.7489   7.7489
     7.9252   7.9252   8.3934   8.3934   8.7254   8.7254   8.7401   8.7401
     8.7486   8.7486   9.4580   9.4580   9.4654   9.4654  10.1900  10.1900
    11.8846  11.8846  14.3599  14.3599  14.3670  14.3670  14.4005  14.4005
    14.4089  14.4089  15.1545  15.1545  15.5150  15.5150  16.6696  16.6696
    17.4653  17.4653  17.4767  17.4767  18.0812

          k = 0.5000 0.5000 0.0000 ( 18544 PWs)   bands (ev):

   -48.9233 -48.9232 -48.9219 -48.9219 -23.2446 -23.2446 -23.2393 -23.2393
   -23.2301 -23.2301 -23.1575 -23.1574 -23.1482 -23.1482 -23.1448 -23.1448
   -22.1089 -22.1089 -22.1059 -22.1059  -6.9706  -6.9706  -6.2608  -6.2608
    -6.0042  -6.0042  -5.7528  -5.7528  -5.7504  -5.7504  -5.3049  -5.3049
    -4.1265  -4.1265  -4.1246  -4.1246  -4.0728  -4.0728  -3.7664  -3.7663
    -3.7644  -3.7644  -3.6585  -3.6585   5.1558   5.1558   5.2752   5.2752
     5.3634   5.3634   5.4044   5.4044   7.1716   7.1716   7.1764   7.1764
     7.6173   7.6173   7.6218   7.6218   7.7437   7.7437   7.7451   7.7451
     7.8466   7.8466   8.3652   8.3652   8.7287   8.7287   8.7325   8.7325
     8.7535   8.7535   9.4757   9.4757   9.4780   9.4780  10.1943  10.1943
    11.8652  11.8652  14.3751  14.3751  14.3816  14.3816  14.4046  14.4046
    14.4104  14.4104  15.1618  15.1618  15.4936  15.4936  16.6433  16.6433
    17.4704  17.4704  17.4812  17.4812  18.0847

          k = 0.4500 0.4500 0.0000 ( 18524 PWs)   bands (ev):

   -48.9233 -48.9232 -48.9220 -48.9219 -23.2443 -23.2424 -23.2396 -23.2392
   -23.2300 -23.2281 -23.1575 -23.1574 -23.1502 -23.1483 -23.1468 -23.1449
   -22.1097 -22.1088 -22.1060 -22.1056  -6.9624  -6.9551  -6.2828  -6.2395
    -6.0051  -5.9963  -5.7506  -5.7448  -5.7438  -5.7423  -5.3305  -5.3189
    -4.1274  -4.1255  -4.1233  -4.1147  -4.0816  -4.0741  -3.7786  -3.7767
    -3.7734  -3.7667  -3.6690  -3.6639   5.1562   5.1831   5.2744   5.3400
     5.3646   5.4038   5.4246   5.4325   7.1282   7.1330   7.1819   7.1911
     7.3676   7.6057   7.6140   7.6181   7.7153   7.7319   7.7751   7.7769
     7.8714   8.0199   8.3810   8.4643   8.6440   8.7143   8.7298   8.7601
     8.7868   8.7906   9.3974   9.4325   9.4793   9.4816  10.1748  10.1962
    11.8599  11.9463  14.3140  14.3205  14.3533  14.3758  14.3851  14.4039
    14.4224  14.4282  15.1253  15.1696  15.4933  15.5770  16.6398  16.7484
    17.4219  17.4257  17.4963  17.5216  18.0330

          k = 0.4000 0.4000 0.0000 ( 18494 PWs)   bands (ev):

   -48.9234 -48.9231 -48.9220 -48.9218 -23.2433 -23.2407 -23.2389 -23.2360
   -23.2297 -23.2224 -23.1578 -23.1571 -23.1561 -23.1526 -23.1486 -23.1451
   -22.1119 -22.1086 -22.1062 -22.1045  -6.9386  -6.9099  -6.3435  -6.1770
    -6.0076  -5.9733  -5.7555  -5.7209  -5.7184  -5.7174  -5.4031  -5.3582
    -4.1300  -4.1281  -4.1195  -4.1070  -4.0819  -4.0779  -3.8148  -3.8129
    -3.7942  -3.7712  -3.7000  -3.6794   5.1574   5.2215   5.2724   5.3681
     5.4831   5.5160   5.5284   5.5623   7.0166   7.0174   7.0214   7.2120
     7.2338   7.5724   7.6120   7.6147   7.6183   7.6966   7.8575   7.8599
     7.9454   8.1509   8.3409   8.4275   8.6722   8.7230   8.7351   8.7808
     8.9407   8.9445   9.1986   9.3232   9.4901   9.4923  10.1141  10.2019
    11.8444  12.1675  14.1378  14.1442  14.1880  14.3777  14.3996  14.4017
    14.4752  14.4810  15.0247  15.1921  15.4923  15.7893  16.6270  17.0170
    17.2644  17.2898  17.5696  17.6429  17.8739

          k = 0.3500 0.3500 0.0000 ( 18530 PWs)   bands (ev):

   -48.9235 -48.9230 -48.9222 -48.9217 -23.2423 -23.2417 -23.2384 -23.2292
   -23.2259 -23.2134 -23.1653 -23.1617 -23.1582 -23.1567 -23.1489 -23.1455
   -22.1154 -22.1083 -22.1066 -22.1027  -6.9017  -6.8388  -6.4311  -6.0776
    -6.0115  -5.9374  -5.7719  -5.6818  -5.6794  -5.6751  -5.5112  -5.4157
    -4.1463  -4.1340  -4.1322  -4.1136  -4.0839  -4.0344  -3.8729  -3.8710
    -3.8276  -3.7724  -3.7495  -3.7020   5.1592   5.2401   5.2692   5.3731
     5.5742   5.6535   5.8225   5.8519   6.6764   6.8720   6.8768   7.2592
     7.3004   7.4017   7.5210   7.6273   7.6306   7.6388   7.9036   7.9795
     7.9822   8.0686   8.2430   8.5018   8.6066   8.7169   8.8178   8.9809
     9.0597   9.1514   9.1551   9.1881   9.5079   9.5101  10.0072  10.2105
    11.8206  12.4829  13.8652  13.8716  13.9308  14.3806  14.3984  14.4346
    14.5617  14.5675  14.8839  15.2269  15.4908  16.0460  16.5976  17.0327
    17.0835  17.2976  17.6086  17.6837  17.8407

          k = 0.3000 0.3000 0.0000 ( 18515 PWs)   bands (ev):

   -48.9237 -48.9228 -48.9224 -48.9215 -23.2443 -23.2396 -23.2378 -23.2286
   -23.2131 -23.2021 -23.1768 -23.1731 -23.1587 -23.1563 -23.1494 -23.1460
   -22.1198 -22.1079 -22.1070 -22.1006  -6.8564  -6.7477  -6.5341  -6.0165
    -5.9486  -5.8930  -5.8028  -5.6386  -5.6290  -5.6266  -5.6195  -5.4830
    -4.1949  -4.1392  -4.1373  -4.1062  -4.0915  -3.9794  -3.9496  -3.9476
    -3.8717  -3.8142  -3.7655  -3.7275   5.1615   5.2494   5.2651   5.3783
     5.6890   5.8422   6.1931   6.2333   6.3618   6.7214   6.7262   7.0704
     7.3195   7.3844   7.3980   7.4573   7.5617   7.6507   7.6537   8.1361
     8.1390   8.2421   8.3351   8.5235   8.5986   8.7205   8.8256   8.8748
     9.0590   9.3691   9.3855   9.3891   9.5324   9.5346   9.8482  10.2215
    11.7911  12.8490  13.5217  13.5279  13.6052  14.3845  14.3942  14.5007
    14.6790  14.6849  14.7328  15.2704  15.4889  16.2717  16.5401  16.7607
    16.8277  17.2644  17.4065  17.8276  18.1104

          k = 0.2500 0.2500 0.0000 ( 18537 PWs)   bands (ev):

   -48.9239 -48.9226 -48.9226 -48.9213 -23.2465 -23.2374 -23.2372 -23.2280
   -23.1988 -23.1894 -23.1894 -23.1856 -23.1592 -23.1558 -23.1500 -23.1465
   -22.1247 -22.1075 -22.1074 -22.0982  -6.8091  -6.6440  -6.6421  -6.0219
    -5.8460  -5.8450  -5.8003  -5.7672  -5.5646  -5.5622  -5.5545  -5.5525
    -4.2480  -4.1448  -4.1430  -4.0998  -4.0979  -4.0402  -4.0382  -3.9236
    -3.9233  -3.8893  -3.7508  -3.7491   5.1641   5.2555   5.2602   5.3813
     5.8163   6.0784   6.0832   6.5807   6.5855   6.6010   6.6586   6.6591
     6.8817   7.3876   7.3880   7.4722   7.4764   7.6805   7.6835   8.3222
     8.3251   8.4303   8.4304   8.4684   8.7106   8.7461   8.7495   8.9519
     8.9558   9.5632   9.5654   9.6193   9.6228   9.6333   9.6369  10.2339
    11.7591  13.1345  13.1407  13.2308  13.2375  14.3889  14.3897  14.5975
    14.6037  14.8222  14.8282  15.3182  15.4868  16.4336  16.4386  16.4781
    16.5482  16.8885  17.3725  17.6517  17.9856

          k = 0.2000 0.2000 0.0000 ( 18531 PWs)   bands (ev):

   -48.9241 -48.9228 -48.9224 -48.9211 -23.2487 -23.2365 -23.2351 -23.2273
   -23.2021 -23.1981 -23.1844 -23.1767 -23.1598 -23.1552 -23.1505 -23.1470
   -22.1298 -22.1080 -22.1070 -22.0958  -6.7681  -6.7459  -6.5362  -6.0274
    -5.8919  -5.8795  -5.8037  -5.6457  -5.6175  -5.4920  -5.4896  -5.4851
    -4.3001  -4.1505  -4.1486  -4.1389  -4.1369  -4.1081  -4.0896  -3.9797
    -3.9683  -3.8713  -3.7670  -3.7258   5.1666   5.2541   5.2604   5.3776
     5.8471   5.9439   6.2329   6.3571   6.4031   6.4586   6.4635   6.9985
     7.0713   7.3199   7.3801   7.4570   7.5658   7.7124   7.7153   8.3350
     8.5235   8.5289   8.5317   8.7170   8.7498   8.8282   8.8286   8.8710
     9.0629   9.3654   9.6000   9.6023   9.8347   9.8381   9.8515  10.2462
    11.7277  12.7310  12.7373  12.8557  13.5986  14.3853  14.3934  14.4947
    14.7390  14.9836  14.9896  15.3654  15.4845  16.2104  16.2712  16.2767
    16.5244  16.5354  17.0913  17.2907  17.8242

          k = 0.1500 0.1500 0.0000 ( 18527 PWs)   bands (ev):

   -48.9243 -48.9230 -48.9222 -48.9209 -23.2508 -23.2360 -23.2331 -23.2268
   -23.2134 -23.2094 -23.1713 -23.1653 -23.1603 -23.1548 -23.1510 -23.1475
   -22.1344 -22.1084 -22.1065 -22.0936  -6.8371  -6.7412  -6.4334  -6.0322
    -5.9623  -5.9363  -5.7728  -5.6732  -5.5002  -5.4178  -5.4166  -5.4142
    -4.3463  -4.2378  -4.2357  -4.1556  -4.1537  -4.1155  -4.0820  -4.0435
    -4.0346  -3.8272  -3.7739  -3.7003   5.1689   5.2449   5.2645   5.3573
     5.6584   5.8516   6.0079   6.0592   6.3603   6.3651   6.6717   7.2596
     7.2961   7.3383   7.4031   7.5207   7.6428   7.7420   7.7449   8.2429
     8.6066   8.7132   8.7406   8.7433   8.8140   8.9398   8.9833   9.0559
     9.0769   9.1919   9.6432   9.6456  10.0105  10.0178  10.0211  10.2574
    11.6999  12.3405  12.3468  12.4897  13.9243  14.3815  14.3976  14.4287
    14.8903  15.1513  15.1574  15.4074  15.4822  15.9783  16.0223  16.0510
    16.1948  16.5643  16.5931  17.2046  17.5676

          k = 0.1000 0.1000 0.0000 ( 18547 PWs)   bands (ev):

   -48.9244 -48.9231 -48.9221 -48.9208 -23.2523 -23.2355 -23.2315 -23.2263
   -23.2224 -23.2182 -23.1608 -23.1606 -23.1561 -23.1544 -23.1514 -23.1479
   -22.1381 -22.1087 -22.1062 -22.0919  -6.9083  -6.7305  -6.3459  -6.0361
    -6.0112  -5.9721  -5.7562  -5.7155  -5.3802  -5.3605  -5.3468  -5.3444
    -4.3825  -4.3261  -4.3240  -4.1596  -4.1577  -4.1214  -4.1062  -4.0820
    -4.0760  -3.7937  -3.7727  -3.6776   5.1707   5.2260   5.2677   5.3007
     5.5210   5.5623   5.7444   6.1510   6.2886   6.2934   7.0129   7.2124
     7.2294   7.5721   7.5888   7.6140   7.7006   7.7657   7.7685   8.1505
     8.6723   8.7193   8.7314   8.7770   8.9314   8.9338   9.0325   9.2004
     9.3269   9.4087   9.6928   9.6953  10.1173  10.1572  10.1605  10.2664
    11.6781  11.9981  12.0045  12.1745  14.1814  14.3785  14.3938  14.4009
    15.0312  15.3071  15.3134  15.4403  15.4799  15.7940  15.7946  15.8249
    15.8866  16.1589  16.6226  17.1335  17.3096

          k = 0.0500 0.0500 0.0000 ( 18577 PWs)   bands (ev):

   -48.9245 -48.9232 -48.9220 -48.9207 -23.2534 -23.2352 -23.2305 -23.2281
   -23.2260 -23.2239 -23.1609 -23.1541 -23.1541 -23.1517 -23.1502 -23.1481
   -22.1405 -22.1089 -22.1060 -22.0908  -6.9536  -6.7302  -6.2853  -6.0387
    -6.0330  -5.9951  -5.7513  -5.7420  -5.3213  -5.3008  -5.2949  -5.2926
    -4.4055  -4.3898  -4.3876  -4.1622  -4.1603  -4.1482  -4.1252  -4.1148
    -4.0722  -3.7729  -3.7682  -3.6622   5.1719   5.1867   5.2157   5.2697
     5.4047   5.4374   5.6275   6.2100   6.2450   6.2498   7.1824   7.1867
     7.3632   7.6054   7.7176   7.7358   7.7392   7.7809   7.7838   8.0186
     8.4614   8.7143   8.7261   8.7563   9.0657   9.0678   9.0941   9.3987
     9.4360   9.6676   9.7417   9.7443  10.1779  10.2445  10.2477  10.2722
    11.6643  11.7518  11.7584  11.9534  14.3467  14.3766  14.3795  14.4031
    15.1317  15.4238  15.4303  15.4613  15.4774  15.5815  15.5909  15.6949
    15.6989  15.9500  16.6356  17.0875  17.1335

          k = 0.0000 0.0000 0.0000 ( 18577 PWs)   bands (ev):

   -48.9246 -48.9232 -48.9220 -48.9206 -23.2537 -23.2351 -23.2301 -23.2301
   -23.2259 -23.2259 -23.1610 -23.1541 -23.1517 -23.1517 -23.1482 -23.1482
   -22.1413 -22.1090 -22.1059 -22.0904  -6.9691  -6.7315  -6.2634  -6.0399
    -6.0382  -6.0030  -5.7510  -5.7510  -5.3073  -5.2754  -5.2730  -5.2730
    -4.4134  -4.4134  -4.4113  -4.1630  -4.1630  -4.1612  -4.1265  -4.1265
    -4.0708  -3.7659  -3.7659  -3.6567   5.1587   5.1714   5.1753   5.2705
     5.3650   5.4094   5.5997   6.2303   6.2303   6.2352   7.1721   7.1721
     7.6170   7.6170   7.7476   7.7476   7.7862   7.7891   7.7891   7.8449
     8.3631   8.7288   8.7288   8.7496   9.1138   9.1158   9.1158   9.4792
     9.4792   9.7647   9.7673   9.7673  10.1975  10.2742  10.2742  10.2774
    11.6596  11.6596  11.6662  11.8724  14.3760  14.3760  14.4038  14.4038
    15.1683  15.4685  15.4685  15.4748  15.4749  15.4806  15.4981  15.6527
    15.6560  15.8885  16.6391  17.0697  17.0716

          k = 0.0000 0.0000 0.0354 ( 18581 PWs)   bands (ev):

   -48.9245 -48.9232 -48.9219 -48.9206 -23.2532 -23.2346 -23.2301 -23.2301
   -23.2259 -23.2259 -23.1616 -23.1546 -23.1517 -23.1517 -23.1482 -23.1482
   -22.1411 -22.1092 -22.1058 -22.0905  -6.9670  -6.7311  -6.2580  -6.0386
    -6.0380  -6.0032  -5.7490  -5.7490  -5.3137  -5.2824  -5.2780  -5.2780
    -4.4093  -4.4074  -4.4074  -4.1628  -4.1628  -4.1575  -4.1267  -4.1267
    -4.0731  -3.7689  -3.7689  -3.6594   5.1588   5.1752   5.1824   5.2868
     5.3653   5.4145   5.6060   6.2301   6.2340   6.2340   7.1608   7.1608
     7.6160   7.6160   7.7556   7.7556   7.7737   7.7877   7.7877   7.8510
     8.3670   8.7219   8.7437   8.7437   9.1036   9.1036   9.1083   9.4801
     9.4801   9.7390   9.7612   9.7612  10.1980  10.2667  10.2667  10.2769
    11.6674  11.6832  11.6832  11.8711  14.3606  14.3606  14.4083  14.4083
    15.1703  15.4570  15.4570  15.4732  15.4809  15.4980  15.5039  15.6635
    15.6663  15.9036  16.6661  17.0735  17.0879

          k = 0.0000 0.0000 0.0707 ( 18581 PWs)   bands (ev):

   -48.9245 -48.9233 -48.9219 -48.9207 -23.2515 -23.2331 -23.2300 -23.2300
   -23.2260 -23.2260 -23.1633 -23.1561 -23.1517 -23.1517 -23.1483 -23.1483
   -22.1405 -22.1098 -22.1056 -22.0908  -6.9609  -6.7301  -6.2421  -6.0374
    -6.0344  -6.0039  -5.7429  -5.7429  -5.3328  -5.3032  -5.2926  -5.2926
    -4.4034  -4.3897  -4.3897  -4.1622  -4.1622  -4.1464  -4.1274  -4.1274
    -4.0797  -3.7781  -3.7781  -3.6673   5.1591   5.1749   5.2132   5.3353
     5.3662   5.4295   5.6270   6.2148   6.2450   6.2450   7.1286   7.1286
     7.6143   7.6143   7.7362   7.7784   7.7784   7.7838   7.7838   7.8696
     8.3789   8.6402   8.7869   8.7869   9.0676   9.0676   9.0921   9.4828
     9.4828   9.6650   9.7445   9.7445  10.1994  10.2445  10.2445  10.2754
    11.6710  11.7519  11.7519  11.8670  14.3149  14.3149  14.4216  14.4216
    15.1761  15.4238  15.4238  15.4678  15.4819  15.4977  15.5867  15.6959
    15.6977  15.9502  16.7443  17.0854  17.1356

          k = 0.0000 0.0000 0.1061 ( 18573 PWs)   bands (ev):

   -48.9245 -48.9233 -48.9219 -48.9207 -23.2488 -23.2307 -23.2299 -23.2299
   -23.2261 -23.2261 -23.1662 -23.1585 -23.1516 -23.1516 -23.1484 -23.1484
   -22.1395 -22.1107 -22.1051 -22.0913  -6.9508  -6.7294  -6.2157  -6.0363
    -6.0262  -6.0049  -5.7329  -5.7329  -5.3638  -5.3370  -5.3154  -5.3154
    -4.3937  -4.3619  -4.3619  -4.1611  -4.1611  -4.1285  -4.1285  -4.1285
    -4.0905  -3.7934  -3.7934  -3.6803   5.1596   5.1744   5.2561   5.3677
     5.4150   5.4543   5.6692   6.1899   6.2632   6.2632   7.0790   7.0790
     7.6137   7.6137   7.6736   7.7773   7.7773   7.8138   7.8138   7.9005
     8.3984   8.5095   8.8543   8.8543   9.0096   9.0096   9.0659   9.4873
     9.4873   9.5504   9.7214   9.7214  10.2018  10.2078  10.2078  10.2729
    11.6768  11.8594  11.8594  11.8605  14.2401  14.2401  14.4437  14.4437
    15.1856  15.3724  15.3724  15.4589  15.4831  15.4973  15.7026  15.7492
    15.7584  16.0323  16.8651  17.1049  17.2115

          k = 0.0000 0.0000 0.1414 ( 18565 PWs)   bands (ev):

   -48.9244 -48.9233 -48.9218 -48.9208 -23.2451 -23.2297 -23.2297 -23.2274
   -23.2263 -23.2263 -23.1701 -23.1619 -23.1514 -23.1514 -23.1485 -23.1485
   -22.1381 -22.1120 -22.1045 -22.0919  -6.9371  -6.7301  -6.1795  -6.0349
    -6.0128  -6.0064  -5.7190  -5.7190  -5.4054  -5.3825  -5.3446  -5.3446
    -4.3804  -4.3260  -4.3260  -4.1596  -4.1596  -4.1300  -4.1300  -4.1051
    -4.1044  -3.8143  -3.8143  -3.6983   5.1603   5.1737   5.2999   5.3697
     5.4880   5.5238   5.7423   6.1558   6.2886   6.2886   7.0169   7.0169
     7.5857   7.6158   7.6158   7.7685   7.7685   7.8601   7.8601   7.9436
     8.3370   8.4254   8.9330   8.9330   8.9409   8.9409   9.0305   9.4061
     9.4935   9.4935   9.6958   9.6958  10.1573  10.1573  10.2050  10.2696
    11.6848  11.8515  11.9982  11.9982  14.1386  14.1386  14.4745  14.4745
    15.1986  15.3069  15.3069  15.4468  15.4843  15.4968  15.7952  15.8222
    15.8846  16.1588  17.0133  17.1314  17.2631

          k = 0.0000 0.0000 0.1768 ( 18561 PWs)   bands (ev):

   -48.9244 -48.9234 -48.9218 -48.9208 -23.2404 -23.2295 -23.2295 -23.2265
   -23.2265 -23.2234 -23.1749 -23.1661 -23.1512 -23.1512 -23.1487 -23.1487
   -22.1364 -22.1136 -22.1037 -22.0927  -6.9200  -6.7334  -6.1341  -6.0331
    -6.0082  -5.9925  -5.7013  -5.7013  -5.4560  -5.4384  -5.3782  -5.3782
    -4.3638  -4.2839  -4.2839  -4.1577  -4.1577  -4.1319  -4.1319  -4.1232
    -4.0751  -3.8408  -3.8408  -3.7209   5.1612   5.1729   5.3347   5.3721
     5.5300   5.6593   5.8540   6.1135   6.3210   6.3210   6.9467   6.9467
     7.4726   7.6209   7.6209   7.7575   7.7575   7.9162   7.9162   7.9990
     8.1308   8.4593   8.8423   8.8423   8.9873   9.0414   9.0414   9.2438
     9.5016   9.5016   9.6704   9.6704  10.0936  10.0936  10.2090  10.2655
    11.6948  11.8405  12.1609  12.1609  14.0128  14.0128  14.5137  14.5137
    15.2146  15.2319  15.2319  15.4317  15.4855  15.4961  15.8811  15.9132
    16.0383  16.3377  17.1543  17.1644  17.1663

          k = 0.0000 0.0000 0.2121 ( 18541 PWs)   bands (ev):

   -48.9243 -48.9235 -48.9217 -48.9209 -23.2350 -23.2292 -23.2292 -23.2268
   -23.2268 -23.2186 -23.1805 -23.1709 -23.1510 -23.1510 -23.1489 -23.1489
   -22.1344 -22.1154 -22.1027 -22.0936  -6.9003  -6.7404  -6.0801  -6.0310
    -6.0103  -5.9641  -5.6800  -5.6800  -5.5135  -5.5026  -5.4145  -5.4145
    -4.3442  -4.2375  -4.2375  -4.1556  -4.1556  -4.1443  -4.1341  -4.1341
    -4.0416  -3.8724  -3.8724  -3.7478   5.1621   5.1719   5.3579   5.3747
     5.5791   5.8180   6.0044   6.0641   6.3604   6.3604   6.8723   6.8723
     7.3349   7.6290   7.6290   7.7447   7.7447   7.8996   7.9816   7.9816
     8.0668   8.4996   8.7421   8.7421   8.9378   9.0745   9.1515   9.1515
     9.5113   9.5113   9.6463   9.6463  10.0179  10.0179  10.2137  10.2606
    11.7066  11.8277  12.3408  12.3408  13.8659  13.8659  14.5610  14.5610
    15.1510  15.1510  15.2334  15.4139  15.4867  15.4953  15.9789  16.0197
    16.1940  16.5630  17.0315  17.0809  17.2026

          k = 0.0000 0.0000 0.2475 ( 18554 PWs)   bands (ev):

   -48.9242 -48.9236 -48.9216 -48.9210 -23.2290 -23.2290 -23.2289 -23.2270
   -23.2270 -23.2132 -23.1868 -23.1764 -23.1508 -23.1508 -23.1492 -23.1492
   -22.1322 -22.1176 -22.1017 -22.0947  -6.8783  -6.7517  -6.0287  -6.0188
    -6.0127  -5.9271  -5.6551  -5.6551  -5.5759  -5.5732  -5.4522  -5.4522
    -4.3221  -4.1886  -4.1886  -4.1678  -4.1531  -4.1531  -4.1365  -4.1365
    -4.0051  -3.9087  -3.9087  -3.7785   5.1632   5.1708   5.3715   5.3773
     5.6342   5.9960   6.0087   6.1883   6.4064   6.4064   6.7965   6.7965
     7.1745   7.6398   7.6398   7.6515   7.7303   7.7303   8.0556   8.0556
     8.1471   8.5456   8.6369   8.6369   8.8835   8.9070   9.2673   9.2673
     9.5227   9.5227   9.6240   9.6240   9.9312   9.9312  10.2190  10.2552
    11.7199  11.8134  12.5325  12.5325  13.7013  13.7013  14.6161  14.6161
    15.0673  15.0673  15.2543  15.3938  15.4878  15.4944  16.0892  16.1391
    16.3550  16.8182  16.8987  16.9577  17.2446

          k = 0.0000 0.0000 0.2828 ( 18514 PWs)   bands (ev):

   -48.9241 -48.9236 -48.9215 -48.9210 -23.2287 -23.2287 -23.2273 -23.2273
   -23.2222 -23.2073 -23.1936 -23.1823 -23.1505 -23.1505 -23.1494 -23.1494
   -22.1298 -22.1199 -22.1006 -22.0958  -6.8550  -6.7671  -6.0261  -6.0152
    -5.9511  -5.8816  -5.6481  -5.6409  -5.6271  -5.6271  -5.4900  -5.4900
    -4.2980  -4.1930  -4.1505  -4.1505  -4.1392  -4.1392  -4.1386  -4.1386
    -3.9665  -3.9491  -3.9491  -3.8125   5.1644   5.1696   5.3788   5.3798
     5.6939   5.9488   6.1888   6.3992   6.4587   6.4587   6.7216   6.7216
     6.9947   7.3939   7.6527   7.6527   7.7150   7.7150   8.1378   8.1378
     8.2402   8.5303   8.5303   8.5965   8.7477   8.8262   9.3857   9.3857
     9.5357   9.5357   9.6033   9.6033   9.8348   9.8348  10.2247  10.2494
    11.7345  11.7981  12.7314  12.7314  13.5223  13.5223  14.6783  14.6783
    14.9832  14.9832  15.2769  15.3719  15.4890  15.4934  16.2105  16.2686
    16.5247  16.7598  16.8252  17.0898  17.2650

          k = 0.0000 0.0000 0.3182 ( 18522 PWs)   bands (ev):

   -48.9241 -48.9237 -48.9215 -48.9211 -23.2284 -23.2284 -23.2276 -23.2276
   -23.2152 -23.2012 -23.2007 -23.1885 -23.1503 -23.1503 -23.1497 -23.1497
   -22.1273 -22.1223 -22.0994 -22.0970  -6.8312  -6.7861  -6.0234  -6.0179
    -5.8786  -5.8286  -5.7253  -5.7062  -5.5962  -5.5962  -5.5271  -5.5271
    -4.2724  -4.2192  -4.1477  -4.1477  -4.1420  -4.1420  -4.0886  -4.0886
    -3.9931  -3.9931  -3.9270  -3.8491   5.1657   5.1683   5.3817   5.3821
     5.7567   5.8858   6.3910   6.5170   6.5170   6.6308   6.6493   6.6493
     6.8002   7.1339   7.6673   7.6673   7.6989   7.6989   8.2275   8.2275
     8.3465   8.4252   8.4252   8.6003   8.6512   8.7673   9.5038   9.5038
     9.5504   9.5504   9.5841   9.5841   9.7304   9.7304  10.2308  10.2433
    11.7500  11.7822  12.9335  12.9335  13.3324  13.3324  14.7472  14.7472
    14.9008  14.9008  15.3006  15.3487  15.4901  15.4923  16.3408  16.4052
    16.6183  16.6867  16.7035  17.0780  17.3319

          k = 0.0000 0.0000 0.3536 ( 18458 PWs)   bands (ev):

   -48.9240 -48.9237 -48.9214 -48.9212 -23.2281 -23.2281 -23.2279 -23.2279
   -23.2081 -23.2079 -23.1950 -23.1947 -23.1501 -23.1501 -23.1498 -23.1498
   -22.1248 -22.1248 -22.0982 -22.0982  -6.8079  -6.8078  -6.0208  -6.0206
    -5.8028  -5.8027  -5.7695  -5.7695  -5.5628  -5.5628  -5.5626  -5.5626
    -4.2460  -4.2460  -4.1449  -4.1449  -4.1449  -4.1449  -4.0399  -4.0399
    -4.0398  -4.0398  -3.8875  -3.8875   5.1669   5.1671   5.3826   5.3828
     5.8211   5.8213   6.5807   6.5807   6.5809   6.5809   6.5969   6.5969
     6.8776   6.8776   7.6828   7.6828   7.6829   7.6829   8.3237   8.3237
     8.3237   8.3237   8.4664   8.4665   8.7084   8.7086   9.5664   9.5664
     9.5666   9.5666   9.6194   9.6194   9.6194   9.6194  10.2369  10.2371
    11.7659  11.7661  13.1349  13.1349  13.1350  13.1350  14.8216  14.8216
    14.8218  14.8218  15.3246  15.3248  15.4911  15.4914  16.4776  16.4776
    16.5456  16.5456  16.8891  16.8893  17.3704

          k = 0.0000 0.0500 0.3536 ( 18504 PWs)   bands (ev):

   -48.9240 -48.9237 -48.9215 -48.9212 -23.2277 -23.2277 -23.2275 -23.2274
   -23.2080 -23.2078 -23.1950 -23.1948 -23.1507 -23.1506 -23.1504 -23.1503
   -22.1246 -22.1246 -22.0983 -22.0983  -6.8022  -6.8021  -6.0178  -6.0176
    -5.8199  -5.8198  -5.7730  -5.7730  -5.5652  -5.5651  -5.5559  -5.5558
    -4.2502  -4.2502  -4.1449  -4.1449  -4.1397  -4.1397  -4.0415  -4.0415
    -4.0300  -4.0300  -3.8874  -3.8874   5.1836   5.1838   5.3997   5.3999
     5.8293   5.8295   6.5772   6.5773   6.5853   6.5854   6.5953   6.5953
     6.8828   6.8829   7.6486   7.6487   7.6733   7.6734   8.2590   8.2591
     8.2754   8.2754   8.5324   8.5325   8.7597   8.7598   9.5260   9.5261
     9.5444   9.5446   9.6124   9.6124   9.6181   9.6182  10.2263  10.2265
    11.8087  11.8089  13.1389  13.1391  13.1396  13.1398  14.8061  14.8063
    14.8089  14.8091  15.3043  15.3046  15.5353  15.5355  16.5006  16.5006
    16.5617  16.5617  16.9076  16.9078  17.3924

          k = 0.0000 0.1000 0.3536 ( 18522 PWs)   bands (ev):

   -48.9240 -48.9237 -48.9215 -48.9212 -23.2265 -23.2263 -23.2262 -23.2260
   -23.2077 -23.2074 -23.1952 -23.1949 -23.1523 -23.1521 -23.1520 -23.1518
   -22.1239 -22.1239 -22.0986 -22.0986  -6.7853  -6.7851  -6.0089  -6.0087
    -5.8634  -5.8634  -5.7828  -5.7828  -5.5726  -5.5724  -5.5433  -5.5431
    -4.2590  -4.2590  -4.1450  -4.1450  -4.1255  -4.1255  -4.0464  -4.0464
    -4.0044  -4.0043  -3.8867  -3.8866   5.2334   5.2336   5.4501   5.4503
     5.8540   5.8542   6.5684   6.5685   6.5902   6.5902   6.5989   6.5990
     6.8974   6.8974   7.5556   7.5556   7.6433   7.6434   8.1524   8.1524
     8.1729   8.1729   8.6336   8.6337   8.8702   8.8703   9.4158   9.4160
     9.4834   9.4836   9.5923   9.5924   9.6142   9.6143  10.1953  10.1955
    11.9283  11.9285  13.1521  13.1522  13.1547  13.1549  14.7607  14.7609
    14.7714  14.7716  15.2446  15.2448  15.6642  15.6644  16.5673  16.5674
    16.6095  16.6095  16.9614  16.9616  17.4555

          k = 0.0000 0.1500 0.3536 ( 18518 PWs)   bands (ev):

   -48.9239 -48.9236 -48.9216 -48.9213 -23.2246 -23.2243 -23.2239 -23.2236
   -23.2072 -23.2069 -23.1954 -23.1951 -23.1551 -23.1548 -23.1544 -23.1541
   -22.1229 -22.1229 -22.0992 -22.0992  -6.7576  -6.7574  -5.9944  -5.9942
    -5.9210  -5.9210  -5.7970  -5.7970  -5.5848  -5.5846  -5.5372  -5.5370
    -4.2650  -4.2650  -4.1451  -4.1451  -4.1056  -4.1056  -4.0541  -4.0541
    -3.9700  -3.9699  -3.8841  -3.8841   5.3153   5.3155   5.5305   5.5307
     5.8963   5.8965   6.5584   6.5585   6.5813   6.5813   6.6217   6.6218
     6.9187   6.9187   7.4242   7.4243   7.5899   7.5900   8.0334   8.0335
     8.0557   8.0557   8.7138   8.7139   8.9967   8.9968   9.2674   9.2676
     9.3979   9.3981   9.5620   9.5621   9.6070   9.6070  10.1459  10.1461
    12.1049  12.1051  13.1766  13.1767  13.1821  13.1822  14.6884  14.6886
    14.7099  14.7101  15.1481  15.1483  15.8682  15.8684  16.6718  16.6718
    16.6873  16.6874  17.0456  17.0457  17.5511

          k = 0.0000 0.2000 0.3536 ( 18550 PWs)   bands (ev):

   -48.9238 -48.9235 -48.9217 -48.9214 -23.2219 -23.2216 -23.2208 -23.2205
   -23.2065 -23.2062 -23.1957 -23.1955 -23.1587 -23.1584 -23.1576 -23.1574
   -22.1215 -22.1215 -22.1000 -22.1000  -6.7199  -6.7198  -5.9847  -5.9847
    -5.9745  -5.9743  -5.8129  -5.8129  -5.6017  -5.6016  -5.5446  -5.5445
    -4.2633  -4.2633  -4.1450  -4.1450  -4.0855  -4.0855  -4.0639  -4.0639
    -3.9324  -3.9323  -3.8779  -3.8779   5.4279   5.4281   5.6345   5.6347
     5.9586   5.9588   6.5528   6.5528   6.5677   6.5677   6.6538   6.6539
     6.9444   6.9444   7.2744   7.2745   7.5119   7.5120   7.9029   7.9029
     7.9314   7.9314   8.7181   8.7181   9.1228   9.1229   9.1445   9.1445
     9.3078   9.3080   9.5252   9.5252   9.5951   9.5952  10.0816  10.0818
    12.3188  12.3191  13.2153  13.2154  13.2241  13.2243  14.5932  14.5934
    14.6262  14.6264  15.0193  15.0195  16.1344  16.1347  16.7929  16.7929
    16.8057  16.8057  17.1514  17.1515  17.6642

          k = 0.0000 0.2500 0.3536 ( 18528 PWs)   bands (ev):

   -48.9237 -48.9234 -48.9218 -48.9215 -23.2184 -23.2181 -23.2168 -23.2165
   -23.2057 -23.2054 -23.1962 -23.1959 -23.1632 -23.1629 -23.1616 -23.1614
   -22.1198 -22.1198 -22.1010 -22.1010  -6.6736  -6.6734  -6.0503  -6.0503
    -5.9499  -5.9497  -5.8273  -5.8272  -5.6232  -5.6230  -5.5673  -5.5672
    -4.2525  -4.2525  -4.1445  -4.1445  -4.0751  -4.0751  -4.0708  -4.0708
    -3.8952  -3.8951  -3.8661  -3.8660   5.5689   5.5691   5.7517   5.7519
     6.0453   6.0455   6.5479   6.5479   6.5575   6.5575   6.6953   6.6954
     6.9739   6.9739   7.1209   7.1210   7.4116   7.4117   7.7630   7.7631
     7.7945   7.7945   8.5825   8.5826   9.1209   9.1209   9.2309   9.2309
     9.2444   9.2444   9.4857   9.4858   9.5767   9.5767  10.0073  10.0075
    12.5552  12.5554  13.2706  13.2708  13.2831  13.2833  14.4794  14.4796
    14.5226  14.5228  14.8633  14.8635  16.4493  16.4495  16.9232  16.9232
    16.9602  16.9603  17.2666  17.2668  17.7716

          k = 0.0000 0.3000 0.3536 ( 18494 PWs)   bands (ev):

   -48.9235 -48.9232 -48.9220 -48.9217 -23.2143 -23.2140 -23.2122 -23.2119
   -23.2047 -23.2045 -23.1967 -23.1965 -23.1683 -23.1681 -23.1663 -23.1660
   -22.1178 -22.1178 -22.1023 -22.1023  -6.6199  -6.6198  -6.1156  -6.1155
    -5.9211  -5.9209  -5.8370  -5.8370  -5.6488  -5.6486  -5.6033  -5.6032
    -4.2335  -4.2335  -4.1433  -4.1433  -4.0869  -4.0869  -4.0655  -4.0655
    -3.8610  -3.8610  -3.8486  -3.8486   5.7356   5.7358   5.8685   5.8687
     6.1592   6.1593   6.5193   6.5193   6.5810   6.5810   6.7465   6.7467
     6.9747   6.9747   7.0085   7.0085   7.2921   7.2922   7.6187   7.6188
     7.6405   7.6405   8.3559   8.3561   9.1571   9.1572   9.1898   9.1899
     9.3495   9.3495   9.4469   9.4469   9.5487   9.5487   9.9289   9.9290
    12.8035  12.8038  13.3440  13.3442  13.3604  13.3606  14.3513  14.3515
    14.4021  14.4023  14.6849  14.6852  16.7995  16.7998  17.0752  17.0752
    17.1273  17.1273  17.3772  17.3773  17.8392

          k = 0.0000 0.3500 0.3536 ( 18514 PWs)   bands (ev):

   -48.9233 -48.9230 -48.9221 -48.9219 -23.2097 -23.2094 -23.2070 -23.2067
   -23.2037 -23.2034 -23.1973 -23.1971 -23.1740 -23.1737 -23.1716 -23.1713
   -22.1158 -22.1158 -22.1038 -22.1038  -6.5608  -6.5607  -6.1799  -6.1798
    -5.8890  -5.8888  -5.8392  -5.8392  -5.6781  -5.6780  -5.6482  -5.6481
    -4.2087  -4.2087  -4.1412  -4.1412  -4.0985  -4.0985  -4.0700  -4.0700
    -3.8321  -3.8320  -3.8284  -3.8284   5.9244   5.9247   5.9763   5.9765
     6.2895   6.2896   6.4780   6.4780   6.6381   6.6381   6.8079   6.8080
     6.8441   6.8442   7.0522   7.0522   7.1524   7.1525   7.4752   7.4753
     7.4753   7.4753   8.0977   8.0979   9.1819   9.1820   9.2036   9.2036
     9.4106   9.4106   9.4442   9.4442   9.5081   9.5081   9.8526   9.8527
    13.0566  13.0568  13.4358  13.4359  13.4563  13.4564  14.2132  14.2134
    14.2687  14.2688  14.4886  14.4888  17.1663  17.1665  17.2524  17.2524
    17.2995  17.2996  17.4724  17.4725  17.8397

          k = 0.0000 0.4000 0.3536 ( 18520 PWs)   bands (ev):

   -48.9231 -48.9228 -48.9223 -48.9220 -23.2047 -23.2044 -23.2027 -23.2024
   -23.2013 -23.2011 -23.1978 -23.1976 -23.1799 -23.1797 -23.1772 -23.1770
   -22.1136 -22.1136 -22.1055 -22.1055  -6.4983  -6.4982  -6.2433  -6.2432
    -5.8544  -5.8542  -5.8317  -5.8316  -5.7106  -5.7104  -5.6965  -5.6964
    -4.1809  -4.1809  -4.1379  -4.1379  -4.1093  -4.1093  -4.0829  -4.0828
    -3.8101  -3.8101  -3.8099  -3.8099   6.0757   6.0758   6.1311   6.1313
     6.4066   6.4067   6.4204   6.4204   6.7347   6.7348   6.7484   6.7485
     6.8800   6.8801   6.9858   6.9860   7.1131   7.1131   7.3161   7.3162
     7.3369   7.3369   7.8331   7.8333   9.2060   9.2061   9.2463   9.2464
     9.3774   9.3774   9.4534   9.4534   9.5262   9.5262   9.7831   9.7831
    13.3085  13.3087  13.5453  13.5454  13.5694  13.5695  14.0691  14.0692
    14.1265  14.1267  14.2779  14.2781  17.4109  17.4109  17.4697  17.4697
    17.5516  17.5517  17.5788  17.5790  17.7961

          k = 0.0000 0.4500 0.3536 ( 18544 PWs)   bands (ev):

   -48.9229 -48.9227 -48.9225 -48.9222 -23.2016 -23.2014 -23.2008 -23.2008
   -23.1968 -23.1967 -23.1954 -23.1951 -23.1860 -23.1857 -23.1832 -23.1829
   -22.1114 -22.1114 -22.1073 -22.1073  -6.4342  -6.4341  -6.3064  -6.3063
    -5.8182  -5.8180  -5.8129  -5.8129  -5.7453  -5.7451  -5.7430  -5.7429
    -4.1525  -4.1525  -4.1331  -4.1331  -4.1188  -4.1188  -4.1020  -4.1019
    -3.7970  -3.7970  -3.7965  -3.7965   6.1702   6.1702   6.3463   6.3463
     6.3499   6.3501   6.4954   6.4955   6.6459   6.6460   6.7896   6.7898
     6.9055   6.9056   6.9640   6.9641   7.1778   7.1778   7.2035   7.2036
     7.2076   7.2076   7.5797   7.5799   9.2544   9.2546   9.2833   9.2834
     9.3464   9.3465   9.3876   9.3877   9.5971   9.5971   9.7203   9.7204
    13.5524  13.5525  13.6736  13.6737  13.6971  13.6973  13.9214  13.9216
    13.9805  13.9807  14.0571  14.0573  17.5988  17.5988  17.6092  17.6092
    17.6424  17.6425  17.7384  17.7384  17.9048

          k = 0.0000 0.5000 0.3536 ( 18528 PWs)   bands (ev):

   -48.9228 -48.9227 -48.9225 -48.9224 -23.2008 -23.2008 -23.2006 -23.2006
   -23.1920 -23.1919 -23.1917 -23.1917 -23.1893 -23.1893 -23.1890 -23.1890
   -22.1093 -22.1093 -22.1093 -22.1093  -6.3701  -6.3701  -6.3699  -6.3699
    -5.7829  -5.7829  -5.7828  -5.7828  -5.7815  -5.7815  -5.7814  -5.7814
    -4.1268  -4.1268  -4.1268  -4.1268  -4.1257  -4.1257  -4.1257  -4.1257
    -3.7922  -3.7922  -3.7921  -3.7921   6.2611   6.2611   6.2611   6.2611
     6.5700   6.5701   6.5701   6.5701   6.5731   6.5731   6.5733   6.5733
     7.0620   7.0620   7.0621   7.0621   7.0647   7.0647   7.0647   7.0648
     7.3618   7.3618   7.3619   7.3619   9.3159   9.3159   9.3159   9.3160
     9.3181   9.3181   9.3182   9.3182   9.6602   9.6603   9.6603   9.6603
    13.7629  13.7629  13.7629  13.7629  13.8357  13.8357  13.8359  13.8359
    13.8400  13.8401  13.8402  13.8402  17.6769  17.6769  17.6770  17.6770
    17.7821  17.7823  17.7827  17.7838  17.7843

          k = 0.0500 0.5000 0.3536 ( 18544 PWs)   bands (ev):

   -48.9228 -48.9227 -48.9225 -48.9224 -23.2014 -23.2013 -23.2013 -23.2013
   -23.1970 -23.1970 -23.1969 -23.1968 -23.1836 -23.1836 -23.1833 -23.1833
   -22.1093 -22.1093 -22.1093 -22.1093  -6.3797  -6.3797  -6.3796  -6.3796
    -5.7846  -5.7846  -5.7846  -5.7845  -5.7726  -5.7726  -5.7724  -5.7724
[...]
   -23.1995 -23.1994 -23.1992 -23.1992 -23.1646 -23.1646 -23.1643 -23.1643
   -22.1087 -22.1087 -22.1087 -22.1087  -6.4860  -6.4860  -6.4859  -6.4859
    -5.8054  -5.8054  -5.8053  -5.8053  -5.6787  -5.6787  -5.6786  -5.6786
    -4.1735  -4.1735  -4.1735  -4.1735  -3.9824  -3.9824  -3.9824  -3.9824
    -3.7969  -3.7969  -3.7969  -3.7969   5.7961   5.7961   5.7963   5.7963
     6.2857   6.2857   6.2858   6.2858   6.7350   6.7350   6.7350   6.7351
     7.0070   7.0070   7.0071   7.0071   7.2576   7.2576   7.2577   7.2577
     8.0264   8.0264   8.0265   8.0265   9.0514   9.0514   9.0515   9.0515
     9.1649   9.1649   9.1649   9.1649   9.6341   9.6341   9.6341   9.6341
    13.4594  13.4594  13.4596  13.4596  14.0426  14.0427  14.0429  14.0429
    14.2290  14.2290  14.2292  14.2292  17.2960  17.2960  17.2962  17.2962
    17.8186  17.8186  17.8186  17.8186  17.9496

          k = 0.2500 0.5000 0.3536 ( 18516 PWs)   bands (ev):

   -48.9228 -48.9227 -48.9225 -48.9224 -23.2238 -23.2238 -23.2235 -23.2235
   -23.1994 -23.1993 -23.1991 -23.1991 -23.1594 -23.1594 -23.1591 -23.1591
   -22.1084 -22.1084 -22.1084 -22.1084  -6.5283  -6.5282  -6.5281  -6.5281
    -5.8153  -5.8153  -5.8152  -5.8152  -5.6431  -5.6431  -5.6429  -5.6429
    -4.1649  -4.1649  -4.1649  -4.1649  -3.9508  -3.9508  -3.9507  -3.9507
    -3.7953  -3.7953  -3.7953  -3.7953   5.6437   5.6437   5.6439   5.6439
     6.2383   6.2383   6.2384   6.2384   6.7023   6.7023   6.7023   6.7023
     7.0781   7.0782   7.0783   7.0783   7.3215   7.3215   7.3215   7.3215
     8.2282   8.2282   8.2283   8.2283   8.9508   8.9508   8.9510   8.9510
     9.0714   9.0714   9.0714   9.0714   9.6343   9.6343   9.6344   9.6344
    13.3932  13.3932  13.3933  13.3933  14.1325  14.1325  14.1327  14.1327
    14.3281  14.3281  14.3283  14.3283  17.0692  17.0692  17.0695  17.0695
    17.8528  17.8528  17.8528  17.8528  18.0341

          k = 0.3000 0.5000 0.3536 ( 18500 PWs)   bands (ev):

   -48.9228 -48.9227 -48.9225 -48.9224 -23.2286 -23.2286 -23.2283 -23.2283
   -23.1992 -23.1991 -23.1989 -23.1989 -23.1549 -23.1549 -23.1546 -23.1546
   -22.1081 -22.1081 -22.1081 -22.1081  -6.5668  -6.5668  -6.5667  -6.5667
    -5.8250  -5.8250  -5.8250  -5.8250  -5.6116  -5.6116  -5.6114  -5.6114
    -4.1507  -4.1507  -4.1507  -4.1507  -3.9292  -3.9292  -3.9291  -3.9291
    -3.7888  -3.7888  -3.7888  -3.7888   5.5112   5.5112   5.5114   5.5114
     6.1894   6.1894   6.1895   6.1895   6.6807   6.6807   6.6807   6.6807
     7.1559   7.1559   7.1560   7.1561   7.3770   7.3770   7.3770   7.3770
     8.4046   8.4046   8.4047   8.4047   8.8340   8.8340   8.8341   8.8341
     8.9986   8.9986   8.9987   8.9987   9.6347   9.6347   9.6348   9.6348
    13.3367  13.3367  13.3369  13.3369  14.2181  14.2181  14.2183  14.2184
    14.4174  14.4174  14.4176  14.4176  16.8613  16.8613  16.8615  16.8615
    17.8899  17.8899  17.8899  17.8899  18.1314

          k = 0.3500 0.5000 0.3536 ( 18524 PWs)   bands (ev):

   -48.9228 -48.9227 -48.9225 -48.9224 -23.2324 -23.2324 -23.2321 -23.2321
   -23.1990 -23.1990 -23.1988 -23.1987 -23.1514 -23.1514 -23.1511 -23.1511
   -22.1078 -22.1078 -22.1078 -22.1078  -6.5990  -6.5990  -6.5989  -6.5989
    -5.8338  -5.8338  -5.8337  -5.8337  -5.5860  -5.5860  -5.5858  -5.5858
    -4.1336  -4.1336  -4.1336  -4.1336  -3.9193  -3.9193  -3.9192  -3.9192
    -3.7773  -3.7773  -3.7773  -3.7772   5.4037   5.4037   5.4039   5.4039
     6.1447   6.1447   6.1448   6.1448   6.6675   6.6675   6.6676   6.6676
     7.2364   7.2364   7.2366   7.2366   7.4208   7.4208   7.4209   7.4209
     8.5264   8.5264   8.5265   8.5265   8.7302   8.7302   8.7304   8.7304
     8.9532   8.9532   8.9532   8.9533   9.6346   9.6346   9.6347   9.6347
    13.2914  13.2914  13.2915  13.2915  14.2919  14.2919  14.2921  14.2921
    14.4925  14.4925  14.4927  14.4927  16.6848  16.6848  16.6850  16.6850
    17.9260  17.9260  17.9260  17.9260  18.2333

          k = 0.4000 0.5000 0.3536 ( 18540 PWs)   bands (ev):

   -48.9228 -48.9227 -48.9225 -48.9224 -23.2352 -23.2352 -23.2349 -23.2349
   -23.1989 -23.1989 -23.1986 -23.1986 -23.1488 -23.1488 -23.1485 -23.1485
   -22.1076 -22.1076 -22.1076 -22.1076  -6.6232  -6.6232  -6.6231  -6.6231
    -5.8407  -5.8407  -5.8406  -5.8406  -5.5673  -5.5673  -5.5671  -5.5671
    -4.1169  -4.1169  -4.1169  -4.1169  -3.9181  -3.9181  -3.9180  -3.9180
    -3.7643  -3.7643  -3.7643  -3.7643   5.3247   5.3247   5.3249   5.3249
     6.1091   6.1091   6.1092   6.1092   6.6599   6.6599   6.6599   6.6600
     7.3120   7.3120   7.3122   7.3122   7.4513   7.4513   7.4513   7.4513
     8.5229   8.5229   8.5231   8.5231   8.7153   8.7153   8.7154   8.7154
     8.9379   8.9379   8.9380   8.9380   9.6342   9.6342   9.6342   9.6342
    13.2582  13.2582  13.2584  13.2584  14.3482  14.3482  14.3484  14.3485
    14.5494  14.5494  14.5496  14.5496  16.5502  16.5502  16.5505  16.5505
    17.9566  17.9566  17.9566  17.9566  18.3310

          k = 0.4500 0.5000 0.3536 ( 18540 PWs)   bands (ev):

   -48.9228 -48.9227 -48.9225 -48.9224 -23.2369 -23.2369 -23.2367 -23.2367
   -23.1988 -23.1988 -23.1986 -23.1985 -23.1472 -23.1472 -23.1469 -23.1469
   -22.1075 -22.1075 -22.1075 -22.1075  -6.6381  -6.6381  -6.6380  -6.6380
    -5.8451  -5.8451  -5.8450  -5.8450  -5.5559  -5.5559  -5.5558  -5.5558
    -4.1044  -4.1044  -4.1044  -4.1044  -3.9204  -3.9204  -3.9204  -3.9204
    -3.7545  -3.7545  -3.7545  -3.7545   5.2764   5.2764   5.2766   5.2766
     6.0863   6.0863   6.0864   6.0864   6.6560   6.6560   6.6560   6.6560
     7.3697   7.3697   7.3699   7.3699   7.4679   7.4679   7.4679   7.4679
     8.4609   8.4609   8.4610   8.4610   8.7390   8.7390   8.7391   8.7391
     8.9470   8.9470   8.9472   8.9472   9.6337   9.6337   9.6337   9.6337
    13.2380  13.2380  13.2381  13.2381  14.3833  14.3834  14.3836  14.3836
    14.5849  14.5849  14.5851  14.5851  16.4658  16.4658  16.4661  16.4661
    17.9772  17.9772  17.9772  17.9772  18.4117

          k = 0.5000 0.5000 0.3536 ( 18616 PWs)   bands (ev):

   -48.9228 -48.9227 -48.9225 -48.9224 -23.2375 -23.2375 -23.2373 -23.2373
   -23.1988 -23.1987 -23.1985 -23.1985 -23.1467 -23.1467 -23.1464 -23.1464
   -22.1074 -22.1074 -22.1074 -22.1074  -6.6432  -6.6432  -6.6431  -6.6431
    -5.8466  -5.8466  -5.8465  -5.8465  -5.5521  -5.5521  -5.5520  -5.5520
    -4.0998  -4.0998  -4.0998  -4.0998  -3.9218  -3.9218  -3.9217  -3.9217
    -3.7510  -3.7510  -3.7510  -3.7509   5.2601   5.2601   5.2603   5.2603
     6.0784   6.0784   6.0785   6.0785   6.6548   6.6548   6.6548   6.6548
     7.3923   7.3923   7.3925   7.3925   7.4724   7.4724   7.4724   7.4724
     8.4341   8.4341   8.4343   8.4343   8.7457   8.7457   8.7459   8.7459
     8.9550   8.9550   8.9552   8.9552   9.6334   9.6334   9.6335   9.6335
    13.2312  13.2312  13.2313  13.2313  14.3952  14.3953  14.3955  14.3955
    14.5969  14.5969  14.5971  14.5971  16.4371  16.4371  16.4373  16.4373
    17.9845  17.9845  17.9845  17.9845  18.4509

          k = 0.4500 0.4500 0.3536 ( 18510 PWs)   bands (ev):

   -48.9228 -48.9227 -48.9225 -48.9224 -23.2373 -23.2370 -23.2354 -23.2352
   -23.1990 -23.1987 -23.1987 -23.1984 -23.1487 -23.1484 -23.1467 -23.1465
   -22.1078 -22.1078 -22.1072 -22.1072  -6.6406  -6.6405  -6.6257  -6.6256
    -5.8492  -5.8491  -5.8378  -5.8378  -5.5681  -5.5679  -5.5512  -5.5511
    -4.1165  -4.1165  -4.1009  -4.1009  -3.9259  -3.9258  -3.9127  -3.9127
    -3.7596  -3.7596  -3.7568  -3.7568   5.2601   5.2603   5.3247   5.3249
     6.0851   6.0852   6.1030   6.1031   6.6546   6.6546   6.6599   6.6599
     7.3032   7.3034   7.3967   7.3968   7.4345   7.4345   7.4944   7.4944
     8.4333   8.4335   8.5372   8.5373   8.6932   8.6932   8.7536   8.7538
     8.9342   8.9343   8.9600   8.9602   9.6335   9.6336   9.6342   9.6342
    13.2277  13.2278  13.2619  13.2621  14.3367  14.3369  14.4066  14.4069
    14.5436  14.5438  14.6026  14.6028  16.4323  16.4325  16.5546  16.5549
    17.9359  17.9359  18.0051  18.0051  18.3718

          k = 0.4000 0.4000 0.3536 ( 18500 PWs)   bands (ev):

   -48.9229 -48.9226 -48.9226 -48.9223 -23.2366 -23.2364 -23.2294 -23.2292
   -23.1996 -23.1993 -23.1984 -23.1982 -23.1545 -23.1543 -23.1470 -23.1467
   -22.1090 -22.1090 -22.1065 -22.1065  -6.6343  -6.6342  -6.5748  -6.5747
    -5.8561  -5.8561  -5.8122  -5.8121  -5.6134  -5.6132  -5.5489  -5.5487
    -4.1555  -4.1555  -4.1041  -4.1041  -3.9371  -3.9370  -3.8958  -3.8957
    -3.7847  -3.7847  -3.7735  -3.7735   5.2600   5.2602   5.5113   5.5116
     6.1029   6.1030   6.1749   6.1750   6.6540   6.6540   6.6776   6.6776
     7.1082   7.1083   7.3294   7.3294   7.4130   7.4132   7.5548   7.5549
     8.4339   8.4340   8.4454   8.4455   8.7724   8.7726   8.7741   8.7742
     8.9754   8.9755   8.9780   8.9781   9.6314   9.6315   9.6373   9.6373
    13.2172  13.2174  13.3542  13.3543  14.1677  14.1680  14.3941  14.3943
    14.4417  14.4419  14.6192  14.6194  16.4168  16.4170  16.8756  16.8758
    17.8077  17.8077  18.0627  18.0627  18.2234

          k = 0.3500 0.3500 0.3536 ( 18512 PWs)   bands (ev):

   -48.9230 -48.9227 -48.9225 -48.9222 -23.2356 -23.2353 -23.2201 -23.2198
   -23.2004 -23.2001 -23.1980 -23.1977 -23.1636 -23.1634 -23.1474 -23.1471
   -22.1109 -22.1109 -22.1055 -22.1055  -6.6288  -6.6287  -6.4945  -6.4944
    -5.8649  -5.8649  -5.7715  -5.7714  -5.6804  -5.6802  -5.5460  -5.5459
    -4.2005  -4.2005  -4.1092  -4.1091  -3.9532  -3.9532  -3.8841  -3.8841
    -3.8233  -3.8233  -3.7988  -3.7988   5.2598   5.2600   5.7980   5.7982
     6.1242   6.1243   6.2862   6.2862   6.6522   6.6522   6.7189   6.7189
     6.8963   6.8964   7.1707   7.1707   7.4432   7.4433   7.6465   7.6466
     8.0572   8.0573   8.4427   8.4428   8.8008   8.8009   9.0028   9.0030
     9.0465   9.0466   9.0792   9.0793   9.6205   9.6205   9.6464   9.6465
    13.1997  13.1999  13.5048  13.5050  13.9074  13.9076  14.1758  14.1760
    14.5025  14.5028  14.6455  14.6456  16.3879  16.3882  17.3213  17.3215
    17.6300  17.6300  18.0170  18.0170  18.1233

          k = 0.3000 0.3000 0.3536 ( 18536 PWs)   bands (ev):

   -48.9232 -48.9229 -48.9223 -48.9220 -23.2343 -23.2340 -23.2088 -23.2086
   -23.2008 -23.2006 -23.1975 -23.1972 -23.1751 -23.1748 -23.1479 -23.1476
   -22.1133 -22.1133 -22.1042 -22.1042  -6.6308  -6.6307  -6.3914  -6.3913
    -5.8729  -5.8729  -5.7560  -5.7558  -5.7195  -5.7194  -5.5440  -5.5439
    -4.2410  -4.2410  -4.1155  -4.1155  -3.9737  -3.9737  -3.8840  -3.8840
    -3.8710  -3.8709  -3.8279  -3.8279   5.2595   5.2597   6.1338   6.1338
     6.1428   6.1430   6.4152   6.4152   6.6475   6.6475   6.7149   6.7151
     6.8165   6.8165   6.9510   6.9510   7.4841   7.4842   7.6457   7.6457
     7.7628   7.7629   8.4670   8.4671   8.8289   8.8289   9.0452   9.0454
     9.1964   9.1965   9.3039   9.3040   9.5900   9.5901   9.6726   9.6726
    13.1710  13.1711  13.5858  13.5861  13.7049  13.7050  13.9248  13.9249
    14.5908  14.5910  14.6803  14.6805  16.3414  16.3417  17.4253  17.4253
    17.7479  17.7479  17.7835  17.7837  18.0635

          k = 0.2500 0.2500 0.3536 ( 18550 PWs)   bands (ev):

   -48.9234 -48.9231 -48.9221 -48.9218 -23.2328 -23.2326 -23.2043 -23.2041
   -23.1969 -23.1966 -23.1933 -23.1931 -23.1877 -23.1874 -23.1484 -23.1481
   -22.1160 -22.1160 -22.1028 -22.1028  -6.6470  -6.6469  -6.2734  -6.2733
    -5.8844  -5.8844  -5.8185  -5.8184  -5.6622  -5.6621  -5.5441  -5.5440
    -4.2704  -4.2704  -4.1224  -4.1224  -4.0005  -4.0005  -3.9215  -3.9214
    -3.8971  -3.8970  -3.8543  -3.8543   5.2587   5.2590   6.1088   6.1088
     6.4411   6.4412   6.5665   6.5666   6.5967   6.5967   6.6011   6.6012
     6.6743   6.6743   7.0267   7.0267   7.3217   7.3217   7.5308   7.5310
     7.8945   7.8946   8.5106   8.5106   8.8611   8.8611   9.1066   9.1068
     9.3118   9.3119   9.4859   9.4859   9.5270   9.5271   9.7508   9.7509
    13.0777  13.0778  13.2852  13.2853  13.6773  13.6775  13.9391  13.9393
    14.6897  14.6897  14.7386  14.7387  16.2701  16.2704  17.2103  17.2103
    17.4385  17.4385  17.8375  17.8376  18.0736

          k = 0.2000 0.2000 0.3536 ( 18542 PWs)   bands (ev):

   -48.9236 -48.9233 -48.9219 -48.9216 -23.2314 -23.2311 -23.2052 -23.2050
   -23.2003 -23.2000 -23.1963 -23.1960 -23.1804 -23.1801 -23.1489 -23.1486
   -22.1187 -22.1187 -22.1014 -22.1014  -6.6796  -6.6794  -6.1494  -6.1494
    -5.9220  -5.9218  -5.8328  -5.8328  -5.6087  -5.6086  -5.5468  -5.5467
    -4.2850  -4.2850  -4.1294  -4.1294  -4.0353  -4.0353  -3.9678  -3.9678
    -3.9222  -3.9222  -3.8725  -3.8725   5.2567   5.2569   6.0409   6.0411
     6.2371   6.2373   6.5307   6.5307   6.5510   6.5510   6.6391   6.6391
     6.8498   6.8499   7.1194   7.1194   7.3440   7.3440   7.5781   7.5782
     8.0288   8.0289   8.5639   8.5640   8.9193   8.9194   9.1911   9.1913
     9.4155   9.4156   9.4203   9.4204   9.5614   9.5614   9.8971   9.8973
    12.7643  12.7645  13.1905  13.1907  13.4639  13.4641  14.1880  14.1882
    14.7400  14.7401  14.8711  14.8713  16.1612  16.1614  17.0011  17.0011
    17.1358  17.1358  17.5864  17.5865  17.9445

          k = 0.1500 0.1500 0.3536 ( 18532 PWs)   bands (ev):

   -48.9238 -48.9235 -48.9217 -48.9214 -23.2301 -23.2298 -23.2115 -23.2112
   -23.2063 -23.2061 -23.1957 -23.1955 -23.1683 -23.1680 -23.1494 -23.1491
   -22.1211 -22.1211 -22.1001 -22.1001  -6.7229  -6.7228  -6.0282  -6.0282
    -5.9651  -5.9649  -5.8169  -5.8169  -5.5695  -5.5694  -5.5516  -5.5514
    -4.2843  -4.2843  -4.1356  -4.1356  -4.0744  -4.0744  -4.0038  -4.0038
    -3.9564  -3.9563  -3.8821  -3.8820   5.2507   5.2509   5.8659   5.8661
     5.9567   5.9569   6.5501   6.5501   6.5645   6.5645   6.6222   6.6223
     6.9971   6.9972   7.1375   7.1375   7.6206   7.6207   7.6738   7.6738
     8.1503   8.1504   8.5939   8.5940   9.0380   9.0381   9.2762   9.2762
     9.2993   9.2995   9.5017   9.5017   9.5909   9.5909  10.0425  10.0427
    12.4012  12.4014  13.1628  13.1630  13.3039  13.3040  14.4280  14.4282
    14.7740  14.7742  15.0289  15.0292  15.9967  15.9969  16.8151  16.8151
    16.8708  16.8708  17.2915  17.2917  17.7232

          k = 0.1000 0.1000 0.3536 ( 18540 PWs)   bands (ev):

   -48.9239 -48.9236 -48.9216 -48.9213 -23.2290 -23.2288 -23.2205 -23.2202
   -23.2073 -23.2070 -23.1953 -23.1951 -23.1586 -23.1583 -23.1498 -23.1495
   -22.1231 -22.1231 -22.0991 -22.0991  -6.7658  -6.7656  -5.9964  -5.9963
    -5.9193  -5.9193  -5.7945  -5.7945  -5.5570  -5.5568  -5.5525  -5.5524
    -4.2715  -4.2715  -4.1406  -4.1406  -4.1104  -4.1104  -4.0264  -4.0263
    -3.9941  -3.9940  -3.8860  -3.8860   5.2338   5.2341   5.5785   5.5787
     5.8842   5.8844   6.5636   6.5637   6.5834   6.5834   6.6031   6.6032
     6.9253   6.9253   7.4018   7.4019   7.6541   7.6542   7.9483   7.9483
     8.2449   8.2450   8.5822   8.5823   9.0144   9.0145   9.3046   9.3048
     9.4203   9.4205   9.5661   9.5662   9.6070   9.6071  10.1508  10.1510
    12.0796  12.0799  13.1469  13.1471  13.2019  13.2021  14.6321  14.6323
    14.7998  14.8000  15.1773  15.1775  15.7788  15.7791  16.6568  16.6568
    16.6729  16.6729  17.0553  17.0555  17.5377

          k = 0.0500 0.0500 0.3536 ( 18524 PWs)   bands (ev):

   -48.9240 -48.9237 -48.9215 -48.9212 -23.2284 -23.2281 -23.2262 -23.2259
   -23.2079 -23.2076 -23.1951 -23.1948 -23.1523 -23.1520 -23.1500 -23.1498
   -22.1244 -22.1244 -22.0984 -22.0984  -6.7967  -6.7966  -6.0148  -6.0146
    -5.8364  -5.8363  -5.7764  -5.7764  -5.5612  -5.5610  -5.5561  -5.5560
    -4.2544  -4.2544  -4.1438  -4.1438  -4.1357  -4.1357  -4.0370  -4.0370
    -4.0263  -4.0263  -3.8873  -3.8873   5.1949   5.1951   5.4219   5.4221
     5.8373   5.8374   6.5760   6.5761   6.5870   6.5872   6.5936   6.5936
     6.8886   6.8887   7.6044   7.6045   7.6755   7.6756   8.1726   8.1726
     8.3038   8.3039   8.5378   8.5379   8.8137   8.8139   9.4878   9.4880
     9.5240   9.5242   9.6059   9.6060   9.6163   9.6163  10.2155  10.2157
    11.8507  11.8509  13.1379  13.1380  13.1499  13.1501  14.7716  14.7718
    14.8160  14.8162  15.2850  15.2852  15.5754  15.5757  16.5237  16.5237
    16.5777  16.5777  16.9275  16.9277  17.4141

          k = 0.0000 0.0000 0.3536 ( 18458 PWs)   bands (ev):

   -48.9240 -48.9237 -48.9214 -48.9212 -23.2281 -23.2281 -23.2279 -23.2279
   -23.2081 -23.2079 -23.1950 -23.1947 -23.1501 -23.1501 -23.1498 -23.1498
   -22.1248 -22.1248 -22.0982 -22.0982  -6.8079  -6.8078  -6.0208  -6.0206
    -5.8028  -5.8027  -5.7695  -5.7695  -5.5628  -5.5628  -5.5626  -5.5626
    -4.2460  -4.2460  -4.1449  -4.1449  -4.1449  -4.1449  -4.0399  -4.0399
    -4.0398  -4.0398  -3.8875  -3.8875   5.1669   5.1671   5.3826   5.3828
     5.8211   5.8213   6.5807   6.5807   6.5809   6.5809   6.5969   6.5969
     6.8776   6.8776   7.6828   7.6828   7.6829   7.6829   8.3237   8.3237
     8.3237   8.3237   8.4664   8.4665   8.7084   8.7086   9.5664   9.5664
     9.5666   9.5666   9.6194   9.6194   9.6194   9.6194  10.2369  10.2371
    11.7659  11.7661  13.1349  13.1349  13.1350  13.1350  14.8216  14.8216
    14.8218  14.8218  15.3246  15.3248  15.4911  15.4914  16.4776  16.4776
    16.5456  16.5456  16.8891  16.8893  17.3704

     Writing all to output data dir ./out/smo.save/ :
     XML data file, pseudopotentials, collected wavefunctions

     init_run     :      2.11s CPU      2.83s WALL (       1 calls)
     electrons    :     99.70s CPU    117.62s WALL (       1 calls)

     Called by init_run:
     wfcinit      :      0.00s CPU      0.17s WALL (       1 calls)
     wfcinit:atom :      0.02s CPU      0.03s WALL (       1 calls)
     wfcinit:wfcr :      1.76s CPU      1.77s WALL (       1 calls)
     potinit      :      0.33s CPU      0.48s WALL (       1 calls)
     hinit0       :      1.46s CPU      1.51s WALL (       1 calls)

     Called by electrons:
     c_bands      :     99.70s CPU    113.77s WALL (       1 calls)
     v_of_rho     :      0.19s CPU      0.22s WALL (       1 calls)
     v_h          :      0.08s CPU      0.10s WALL (       1 calls)
     v_xc         :      0.11s CPU      0.12s WALL (       1 calls)
     newd         :      0.08s CPU      0.08s WALL (       1 calls)
     PAW_pot      :      0.03s CPU      0.03s WALL (       1 calls)

     Called by c_bands:
     init_us_2    :      0.05s CPU      0.08s WALL (       1 calls)
     cegterg      :     94.46s CPU     94.74s WALL (       6 calls)

     Called by sum_band:

     Called by *egterg:
     cdiaghg      :      1.62s CPU      1.62s WALL (     121 calls)
     cegterg:over :      9.03s CPU      9.03s WALL (     120 calls)
     cegterg:upda :      5.59s CPU      5.61s WALL (     120 calls)
     cegterg:last :     13.45s CPU     13.47s WALL (      44 calls)
     h_psi        :     58.34s CPU     58.47s WALL (     127 calls)
     s_psi        :      6.67s CPU      6.69s WALL (     127 calls)
     g_psi        :      0.23s CPU      0.23s WALL (     120 calls)

     Called by h_psi:
     h_psi:calbec :      6.13s CPU      6.15s WALL (     127 calls)
     vloc_psi     :     45.28s CPU     45.34s WALL (     127 calls)
                                        0.00s GPU  (     127 calls)
     add_vuspsi   :      6.67s CPU      6.67s WALL (     127 calls)

     General routines
     calbec       :      6.13s CPU      6.15s WALL (     127 calls)
     fft          :      0.17s CPU      0.17s WALL (       6 calls)
     ffts         :      0.01s CPU      0.01s WALL (       1 calls)
     fftw         :     40.85s CPU     40.91s WALL (    9474 calls)
     interpolate  :      0.06s CPU      0.07s WALL (       1 calls)
     davcio       :      0.00s CPU      3.89s WALL (       2 calls)

     Parallel routines

     PAW routines
     PAW_pot      :      0.03s CPU      0.03s WALL (       1 calls)

     PWSCF        :   1m42.33s CPU   2m 6.19s WALL


   This run was terminated on:  20:38:11  29Nov2025            

=------------------------------------------------------------------------------=
   JOB DONE.
=------------------------------------------------------------------------------=
