
             +---------------------------------------------------+
             |                                                   |
             |                   WANNIER90                       |
             |                                                   |
             +---------------------------------------------------+
             |                                                   |
             |        Welcome to the Maximally-Localized         |
             |        Generalized Wannier Functions code         |
             |            http://www.wannier.org                 |
             |                                                   |
             |                                                   |
             |  Wannier90 Developer Group:                       |
             |    Giovanni Pizzi    (Paul Scherrer Institute)    |
             |    Valerio Vitale    (University of Trieste)      |
             |    David Vanderbilt  (Rutgers University)         |
             |    Nicola Marzari    (EPFL)                       |
             |    Ivo Souza         (Universidad del Pais Vasco) |
             |    Arash A. Mostofi  (Imperial College London)    |
             |    Jonathan R. Yates (University of Oxford)       |
             |                                                   |
             |  For the full list of Wannier90 3.x authors,      |
             |  please check the code documentation and the      |
             |  README on the GitHub page of the code            |
             |                                                   |
             |                                                   |
             |  Please cite                                      |
             |                                                   |
             |  [ref] "Wannier90 as a community code:            |
             |        new features and applications",            |
             |        G. Pizzi et al., J. Phys. Cond. Matt. 32,  |
             |        165902 (2020).                             |
             |        http://doi.org/10.1088/1361-648X/ab51ff    |
             |                                                   |
             |  in any publications arising from the use of      |
             |  this code. For the method please cite            |
             |                                                   |
             |  [ref] "Maximally Localized Generalised Wannier   |
             |         Functions for Composite Energy Bands"     |
             |         N. Marzari and D. Vanderbilt              |
             |         Phys. Rev. B 56 12847 (1997)              |
             |                                                   |
             |  [ref] "Maximally Localized Wannier Functions     |
             |         for Entangled Energy Bands"               |
             |         I. Souza, N. Marzari and D. Vanderbilt    |
             |         Phys. Rev. B 65 035109 (2001)             |
             |                                                   |
             |                                                   |
             | Copyright (c) 1996-2020                           |
             |        The Wannier90 Developer Group and          |
             |        individual contributors                    |
             |                                                   |
             |      Release: 3.1.0        5th March    2020      |
             |                                                   |
             | This program is free software; you can            |
             | redistribute it and/or modify it under the terms  |
             | of the GNU General Public License as published by |
             | the Free Software Foundation; either version 2 of |
             | the License, or (at your option) any later version|
             |                                                   |
             | This program is distributed in the hope that it   |
             | will be useful, but WITHOUT ANY WARRANTY; without |
             | even the implied warranty of MERCHANTABILITY or   |
             | FITNESS FOR A PARTICULAR PURPOSE. See the GNU     |
             | General Public License for more details.          |
             |                                                   |
             | You should have received a copy of the GNU General|
             | Public License along with this program; if not,   |
             | write to the Free Software Foundation, Inc.,      |
             | 675 Mass Ave, Cambridge, MA 02139, USA.           |
             |                                                   |
             +---------------------------------------------------+
             |    Execution started on 29Nov2025 at 20:40:42     |
             +---------------------------------------------------+
 
 ******************************************************************************
 * -> Using CODATA 2006 constant values                                       *
 *    (http://physics.nist.gov/cuu/Constants/index.html)                      *
 * -> Using Bohr value from CODATA                                            *
 ******************************************************************************

 Running in parallel on 128 CPUs

                                    ------
                                    SYSTEM
                                    ------

                              Lattice Vectors (Ang)
                    a_1     5.613960   0.000000   0.000000
                    a_2     0.000000   5.613960   0.000000
                    a_3     0.000000   0.000000   7.939340

                   Unit Cell Volume:     250.22058  (Ang^3)

                        Reciprocal-Space Vectors (Ang^-1)
                    b_1     1.119207   0.000000   0.000000
                    b_2     0.000000   1.119207   0.000000
                    b_3     0.000000   0.000000   0.791399
  
 *----------------------------------------------------------------------------*
 |   Site       Fractional Coordinate          Cartesian Coordinate (Ang)     |
 +----------------------------------------------------------------------------+
 | sr   1   0.00000   0.50000   0.25000   |    0.00000   2.80698   1.98483    |
 | sr   2   0.00000   0.50000   0.75000   |    0.00000   2.80698   5.95450    |
 | sr   3   0.50000   0.00000   0.75000   |    2.80698   0.00000   5.95450    |
 | sr   4   0.50000   0.00000   0.25000   |    2.80698   0.00000   1.98483    |
 | mo   1   0.00000   0.00000   0.00000   |    0.00000   0.00000   0.00000    |
 | mo   2   0.00000   0.00000   0.50000   |    0.00000   0.00000   3.96967    |
 | mo   3   0.50000   0.50000   0.50000   |    2.80698   2.80698   3.96967    |
 | mo   4   0.50000   0.50000   0.00000   |    2.80698   2.80698   0.00000    |
 | o    1   0.25000   0.75000   0.00000   |    1.40349   4.21047   0.00000    |
 | o    2   0.25000   0.25000   0.00000   |    1.40349   1.40349   0.00000    |
 | o    3   0.75000   0.25000   0.50000   |    4.21047   1.40349   3.96967    |
 | o    4   0.75000   0.75000   0.50000   |    4.21047   4.21047   3.96967    |
 | o    5   0.75000   0.25000   0.00000   |    4.21047   1.40349   0.00000    |
 | o    6   0.75000   0.75000   0.00000   |    4.21047   4.21047   0.00000    |
 | o    7   0.25000   0.75000   0.50000   |    1.40349   4.21047   3.96967    |
 | o    8   0.25000   0.25000   0.50000   |    1.40349   1.40349   3.96967    |
 | o    9   0.00000   0.00000   0.25000   |    0.00000   0.00000   1.98483    |
 | o   10   0.00000   0.00000   0.75000   |    0.00000   0.00000   5.95450    |
 | o   11   0.50000   0.50000   0.75000   |    2.80698   2.80698   5.95450    |
 | o   12   0.50000   0.50000   0.25000   |    2.80698   2.80698   1.98483    |
 *----------------------------------------------------------------------------*
                                -----------
                                PROJECTIONS
                                -----------
  
 +----------------------------------------------------------------------------+
 |     Frac. Coord.   l mr  r        z-axis               x-axis          Z/a |
 +----------------------------------------------------------------------------+
 |  0.00  0.00  0.00  2  2  1  0.000  0.000  1.000  0.707  0.707  0.000   1.0 |
 |  0.00  0.00  0.00  2  3  1  0.000  0.000  1.000  0.707  0.707  0.000   1.0 |
 |  0.00  0.00  0.00  2  5  1  0.000  0.000  1.000  0.707  0.707  0.000   1.0 |
 |  0.00  0.00  0.50  2  2  1  0.000  0.000  1.000  0.707  0.707  0.000   1.0 |
 |  0.00  0.00  0.50  2  3  1  0.000  0.000  1.000  0.707  0.707  0.000   1.0 |
 |  0.00  0.00  0.50  2  5  1  0.000  0.000  1.000  0.707  0.707  0.000   1.0 |
 |  0.50  0.50  0.50  2  2  1  0.000  0.000  1.000  0.707  0.707  0.000   1.0 |
 |  0.50  0.50  0.50  2  3  1  0.000  0.000  1.000  0.707  0.707  0.000   1.0 |
 |  0.50  0.50  0.50  2  5  1  0.000  0.000  1.000  0.707  0.707  0.000   1.0 |
 |  0.50  0.50  0.00  2  2  1  0.000  0.000  1.000  0.707  0.707  0.000   1.0 |
 |  0.50  0.50  0.00  2  3  1  0.000  0.000  1.000  0.707  0.707  0.000   1.0 |
 |  0.50  0.50  0.00  2  5  1  0.000  0.000  1.000  0.707  0.707  0.000   1.0 |
 |  0.00  0.00  0.00  2  1  1  0.000  0.000  1.000  0.707  0.707  0.000   1.0 |
 |  0.00  0.00  0.00  2  4  1  0.000  0.000  1.000  0.707  0.707  0.000   1.0 |
 |  0.00  0.00  0.50  2  1  1  0.000  0.000  1.000  0.707  0.707  0.000   1.0 |
 |  0.00  0.00  0.50  2  4  1  0.000  0.000  1.000  0.707  0.707  0.000   1.0 |
 |  0.50  0.50  0.50  2  1  1  0.000  0.000  1.000  0.707  0.707  0.000   1.0 |
 |  0.50  0.50  0.50  2  4  1  0.000  0.000  1.000  0.707  0.707  0.000   1.0 |
 |  0.50  0.50  0.00  2  1  1  0.000  0.000  1.000  0.707  0.707  0.000   1.0 |
 |  0.50  0.50  0.00  2  4  1  0.000  0.000  1.000  0.707  0.707  0.000   1.0 |
 |  0.25  0.75  0.00  1  1  1  0.000  0.000  1.000  1.000  0.000  0.000   1.0 |
 |  0.25  0.75  0.00  1  2  1  0.000  0.000  1.000  1.000  0.000  0.000   1.0 |
 |  0.25  0.75  0.00  1  3  1  0.000  0.000  1.000  1.000  0.000  0.000   1.0 |
 |  0.25  0.25  0.00  1  1  1  0.000  0.000  1.000  1.000  0.000  0.000   1.0 |
 |  0.25  0.25  0.00  1  2  1  0.000  0.000  1.000  1.000  0.000  0.000   1.0 |
 |  0.25  0.25  0.00  1  3  1  0.000  0.000  1.000  1.000  0.000  0.000   1.0 |
 |  0.75  0.25  0.50  1  1  1  0.000  0.000  1.000  1.000  0.000  0.000   1.0 |
 |  0.75  0.25  0.50  1  2  1  0.000  0.000  1.000  1.000  0.000  0.000   1.0 |
 |  0.75  0.25  0.50  1  3  1  0.000  0.000  1.000  1.000  0.000  0.000   1.0 |
 |  0.75  0.75  0.50  1  1  1  0.000  0.000  1.000  1.000  0.000  0.000   1.0 |
 |  0.75  0.75  0.50  1  2  1  0.000  0.000  1.000  1.000  0.000  0.000   1.0 |
 |  0.75  0.75  0.50  1  3  1  0.000  0.000  1.000  1.000  0.000  0.000   1.0 |
 |  0.75  0.25  0.00  1  1  1  0.000  0.000  1.000  1.000  0.000  0.000   1.0 |
 |  0.75  0.25  0.00  1  2  1  0.000  0.000  1.000  1.000  0.000  0.000   1.0 |
 |  0.75  0.25  0.00  1  3  1  0.000  0.000  1.000  1.000  0.000  0.000   1.0 |
 |  0.75  0.75  0.00  1  1  1  0.000  0.000  1.000  1.000  0.000  0.000   1.0 |
 |  0.75  0.75  0.00  1  2  1  0.000  0.000  1.000  1.000  0.000  0.000   1.0 |
 |  0.75  0.75  0.00  1  3  1  0.000  0.000  1.000  1.000  0.000  0.000   1.0 |
 |  0.25  0.75  0.50  1  1  1  0.000  0.000  1.000  1.000  0.000  0.000   1.0 |
 |  0.25  0.75  0.50  1  2  1  0.000  0.000  1.000  1.000  0.000  0.000   1.0 |
 |  0.25  0.75  0.50  1  3  1  0.000  0.000  1.000  1.000  0.000  0.000   1.0 |
 |  0.25  0.25  0.50  1  1  1  0.000  0.000  1.000  1.000  0.000  0.000   1.0 |
 |  0.25  0.25  0.50  1  2  1  0.000  0.000  1.000  1.000  0.000  0.000   1.0 |
 |  0.25  0.25  0.50  1  3  1  0.000  0.000  1.000  1.000  0.000  0.000   1.0 |
 |  0.00  0.00  0.25  1  1  1  0.000  0.000  1.000  1.000  0.000  0.000   1.0 |
 |  0.00  0.00  0.25  1  2  1  0.000  0.000  1.000  1.000  0.000  0.000   1.0 |
 |  0.00  0.00  0.25  1  3  1  0.000  0.000  1.000  1.000  0.000  0.000   1.0 |
 |  0.00  0.00  0.75  1  1  1  0.000  0.000  1.000  1.000  0.000  0.000   1.0 |
 |  0.00  0.00  0.75  1  2  1  0.000  0.000  1.000  1.000  0.000  0.000   1.0 |
 |  0.00  0.00  0.75  1  3  1  0.000  0.000  1.000  1.000  0.000  0.000   1.0 |
 |  0.50  0.50  0.75  1  1  1  0.000  0.000  1.000  1.000  0.000  0.000   1.0 |
 |  0.50  0.50  0.75  1  2  1  0.000  0.000  1.000  1.000  0.000  0.000   1.0 |
 |  0.50  0.50  0.75  1  3  1  0.000  0.000  1.000  1.000  0.000  0.000   1.0 |
 |  0.50  0.50  0.25  1  1  1  0.000  0.000  1.000  1.000  0.000  0.000   1.0 |
 |  0.50  0.50  0.25  1  2  1  0.000  0.000  1.000  1.000  0.000  0.000   1.0 |
 |  0.50  0.50  0.25  1  3  1  0.000  0.000  1.000  1.000  0.000  0.000   1.0 |
 +----------------------------------------------------------------------------+
  
                                ------------
                                K-POINT GRID
                                ------------
  
             Grid size =  5 x  5 x  5      Total points =  125
  
 *----------------------------------------------------------------------------*
 | k-point      Fractional Coordinate        Cartesian Coordinate (Ang^-1)    |
 +----------------------------------------------------------------------------+
 |     1    0.00000   0.00000   0.00000   |    0.00000   0.00000   0.00000    |
 |     2    0.00000   0.00000   0.20000   |    0.00000   0.00000   0.15828    |
 |     3    0.00000   0.00000   0.40000   |    0.00000   0.00000   0.31656    |
 |     4    0.00000   0.00000   0.60000   |    0.00000   0.00000   0.47484    |
 |     5    0.00000   0.00000   0.80000   |    0.00000   0.00000   0.63312    |
 |     6    0.00000   0.20000   0.00000   |    0.00000   0.22384   0.00000    |
 |     7    0.00000   0.20000   0.20000   |    0.00000   0.22384   0.15828    |
 |     8    0.00000   0.20000   0.40000   |    0.00000   0.22384   0.31656    |
 |     9    0.00000   0.20000   0.60000   |    0.00000   0.22384   0.47484    |
 |    10    0.00000   0.20000   0.80000   |    0.00000   0.22384   0.63312    |
 |    11    0.00000   0.40000   0.00000   |    0.00000   0.44768   0.00000    |
 |    12    0.00000   0.40000   0.20000   |    0.00000   0.44768   0.15828    |
 |    13    0.00000   0.40000   0.40000   |    0.00000   0.44768   0.31656    |
 |    14    0.00000   0.40000   0.60000   |    0.00000   0.44768   0.47484    |
 |    15    0.00000   0.40000   0.80000   |    0.00000   0.44768   0.63312    |
 |    16    0.00000   0.60000   0.00000   |    0.00000   0.67152   0.00000    |
 |    17    0.00000   0.60000   0.20000   |    0.00000   0.67152   0.15828    |
 |    18    0.00000   0.60000   0.40000   |    0.00000   0.67152   0.31656    |
 |    19    0.00000   0.60000   0.60000   |    0.00000   0.67152   0.47484    |
 |    20    0.00000   0.60000   0.80000   |    0.00000   0.67152   0.63312    |
 |    21    0.00000   0.80000   0.00000   |    0.00000   0.89537   0.00000    |
 |    22    0.00000   0.80000   0.20000   |    0.00000   0.89537   0.15828    |
 |    23    0.00000   0.80000   0.40000   |    0.00000   0.89537   0.31656    |
 |    24    0.00000   0.80000   0.60000   |    0.00000   0.89537   0.47484    |
 |    25    0.00000   0.80000   0.80000   |    0.00000   0.89537   0.63312    |
 |    26    0.20000   0.00000   0.00000   |    0.22384   0.00000   0.00000    |
 |    27    0.20000   0.00000   0.20000   |    0.22384   0.00000   0.15828    |
 |    28    0.20000   0.00000   0.40000   |    0.22384   0.00000   0.31656    |
 |    29    0.20000   0.00000   0.60000   |    0.22384   0.00000   0.47484    |
 |    30    0.20000   0.00000   0.80000   |    0.22384   0.00000   0.63312    |
 |    31    0.20000   0.20000   0.00000   |    0.22384   0.22384   0.00000    |
 |    32    0.20000   0.20000   0.20000   |    0.22384   0.22384   0.15828    |
 |    33    0.20000   0.20000   0.40000   |    0.22384   0.22384   0.31656    |
 |    34    0.20000   0.20000   0.60000   |    0.22384   0.22384   0.47484    |
 |    35    0.20000   0.20000   0.80000   |    0.22384   0.22384   0.63312    |
 |    36    0.20000   0.40000   0.00000   |    0.22384   0.44768   0.00000    |
 |    37    0.20000   0.40000   0.20000   |    0.22384   0.44768   0.15828    |
 |    38    0.20000   0.40000   0.40000   |    0.22384   0.44768   0.31656    |
 |    39    0.20000   0.40000   0.60000   |    0.22384   0.44768   0.47484    |
 |    40    0.20000   0.40000   0.80000   |    0.22384   0.44768   0.63312    |
 |    41    0.20000   0.60000   0.00000   |    0.22384   0.67152   0.00000    |
 |    42    0.20000   0.60000   0.20000   |    0.22384   0.67152   0.15828    |
 |    43    0.20000   0.60000   0.40000   |    0.22384   0.67152   0.31656    |
 |    44    0.20000   0.60000   0.60000   |    0.22384   0.67152   0.47484    |
 |    45    0.20000   0.60000   0.80000   |    0.22384   0.67152   0.63312    |
 |    46    0.20000   0.80000   0.00000   |    0.22384   0.89537   0.00000    |
 |    47    0.20000   0.80000   0.20000   |    0.22384   0.89537   0.15828    |
 |    48    0.20000   0.80000   0.40000   |    0.22384   0.89537   0.31656    |
 |    49    0.20000   0.80000   0.60000   |    0.22384   0.89537   0.47484    |
 |    50    0.20000   0.80000   0.80000   |    0.22384   0.89537   0.63312    |
 |    51    0.40000   0.00000   0.00000   |    0.44768   0.00000   0.00000    |
 |    52    0.40000   0.00000   0.20000   |    0.44768   0.00000   0.15828    |
 |    53    0.40000   0.00000   0.40000   |    0.44768   0.00000   0.31656    |
 |    54    0.40000   0.00000   0.60000   |    0.44768   0.00000   0.47484    |
 |    55    0.40000   0.00000   0.80000   |    0.44768   0.00000   0.63312    |
 |    56    0.40000   0.20000   0.00000   |    0.44768   0.22384   0.00000    |
 |    57    0.40000   0.20000   0.20000   |    0.44768   0.22384   0.15828    |
 |    58    0.40000   0.20000   0.40000   |    0.44768   0.22384   0.31656    |
 |    59    0.40000   0.20000   0.60000   |    0.44768   0.22384   0.47484    |
 |    60    0.40000   0.20000   0.80000   |    0.44768   0.22384   0.63312    |
 |    61    0.40000   0.40000   0.00000   |    0.44768   0.44768   0.00000    |
 |    62    0.40000   0.40000   0.20000   |    0.44768   0.44768   0.15828    |
 |    63    0.40000   0.40000   0.40000   |    0.44768   0.44768   0.31656    |
 |    64    0.40000   0.40000   0.60000   |    0.44768   0.44768   0.47484    |
 |    65    0.40000   0.40000   0.80000   |    0.44768   0.44768   0.63312    |
 |    66    0.40000   0.60000   0.00000   |    0.44768   0.67152   0.00000    |
 |    67    0.40000   0.60000   0.20000   |    0.44768   0.67152   0.15828    |
 |    68    0.40000   0.60000   0.40000   |    0.44768   0.67152   0.31656    |
 |    69    0.40000   0.60000   0.60000   |    0.44768   0.67152   0.47484    |
 |    70    0.40000   0.60000   0.80000   |    0.44768   0.67152   0.63312    |
 |    71    0.40000   0.80000   0.00000   |    0.44768   0.89537   0.00000    |
 |    72    0.40000   0.80000   0.20000   |    0.44768   0.89537   0.15828    |
 |    73    0.40000   0.80000   0.40000   |    0.44768   0.89537   0.31656    |
 |    74    0.40000   0.80000   0.60000   |    0.44768   0.89537   0.47484    |
 |    75    0.40000   0.80000   0.80000   |    0.44768   0.89537   0.63312    |
 |    76    0.60000   0.00000   0.00000   |    0.67152   0.00000   0.00000    |
 |    77    0.60000   0.00000   0.20000   |    0.67152   0.00000   0.15828    |
 |    78    0.60000   0.00000   0.40000   |    0.67152   0.00000   0.31656    |
 |    79    0.60000   0.00000   0.60000   |    0.67152   0.00000   0.47484    |
 |    80    0.60000   0.00000   0.80000   |    0.67152   0.00000   0.63312    |
 |    81    0.60000   0.20000   0.00000   |    0.67152   0.22384   0.00000    |
 |    82    0.60000   0.20000   0.20000   |    0.67152   0.22384   0.15828    |
 |    83    0.60000   0.20000   0.40000   |    0.67152   0.22384   0.31656    |
 |    84    0.60000   0.20000   0.60000   |    0.67152   0.22384   0.47484    |
 |    85    0.60000   0.20000   0.80000   |    0.67152   0.22384   0.63312    |
 |    86    0.60000   0.40000   0.00000   |    0.67152   0.44768   0.00000    |
 |    87    0.60000   0.40000   0.20000   |    0.67152   0.44768   0.15828    |
 |    88    0.60000   0.40000   0.40000   |    0.67152   0.44768   0.31656    |
 |    89    0.60000   0.40000   0.60000   |    0.67152   0.44768   0.47484    |
 |    90    0.60000   0.40000   0.80000   |    0.67152   0.44768   0.63312    |
 |    91    0.60000   0.60000   0.00000   |    0.67152   0.67152   0.00000    |
 |    92    0.60000   0.60000   0.20000   |    0.67152   0.67152   0.15828    |
 |    93    0.60000   0.60000   0.40000   |    0.67152   0.67152   0.31656    |
 |    94    0.60000   0.60000   0.60000   |    0.67152   0.67152   0.47484    |
 |    95    0.60000   0.60000   0.80000   |    0.67152   0.67152   0.63312    |
 |    96    0.60000   0.80000   0.00000   |    0.67152   0.89537   0.00000    |
 |    97    0.60000   0.80000   0.20000   |    0.67152   0.89537   0.15828    |
 |    98    0.60000   0.80000   0.40000   |    0.67152   0.89537   0.31656    |
 |    99    0.60000   0.80000   0.60000   |    0.67152   0.89537   0.47484    |
 |   100    0.60000   0.80000   0.80000   |    0.67152   0.89537   0.63312    |
 |   101    0.80000   0.00000   0.00000   |    0.89537   0.00000   0.00000    |
 |   102    0.80000   0.00000   0.20000   |    0.89537   0.00000   0.15828    |
 |   103    0.80000   0.00000   0.40000   |    0.89537   0.00000   0.31656    |
 |   104    0.80000   0.00000   0.60000   |    0.89537   0.00000   0.47484    |
 |   105    0.80000   0.00000   0.80000   |    0.89537   0.00000   0.63312    |
 |   106    0.80000   0.20000   0.00000   |    0.89537   0.22384   0.00000    |
 |   107    0.80000   0.20000   0.20000   |    0.89537   0.22384   0.15828    |
 |   108    0.80000   0.20000   0.40000   |    0.89537   0.22384   0.31656    |
 |   109    0.80000   0.20000   0.60000   |    0.89537   0.22384   0.47484    |
 |   110    0.80000   0.20000   0.80000   |    0.89537   0.22384   0.63312    |
 |   111    0.80000   0.40000   0.00000   |    0.89537   0.44768   0.00000    |
 |   112    0.80000   0.40000   0.20000   |    0.89537   0.44768   0.15828    |
 |   113    0.80000   0.40000   0.40000   |    0.89537   0.44768   0.31656    |
 |   114    0.80000   0.40000   0.60000   |    0.89537   0.44768   0.47484    |
 |   115    0.80000   0.40000   0.80000   |    0.89537   0.44768   0.63312    |
 |   116    0.80000   0.60000   0.00000   |    0.89537   0.67152   0.00000    |
 |   117    0.80000   0.60000   0.20000   |    0.89537   0.67152   0.15828    |
 |   118    0.80000   0.60000   0.40000   |    0.89537   0.67152   0.31656    |
 |   119    0.80000   0.60000   0.60000   |    0.89537   0.67152   0.47484    |
 |   120    0.80000   0.60000   0.80000   |    0.89537   0.67152   0.63312    |
 |   121    0.80000   0.80000   0.00000   |    0.89537   0.89537   0.00000    |
 |   122    0.80000   0.80000   0.20000   |    0.89537   0.89537   0.15828    |
 |   123    0.80000   0.80000   0.40000   |    0.89537   0.89537   0.31656    |
 |   124    0.80000   0.80000   0.60000   |    0.89537   0.89537   0.47484    |
 |   125    0.80000   0.80000   0.80000   |    0.89537   0.89537   0.63312    |
 *----------------------------------------------------------------------------*
  
  
 *---------------------------------- MAIN ------------------------------------*
 |  Number of Wannier Functions               :                56             |
 |  Number of Objective Wannier Functions     :                56             |
 |  Number of input Bloch states              :                56             |
 |  Output verbosity (1=low, 5=high)          :                 2             |
 |  Timing Level (1=low, 5=high)              :                 1             |
 |  Optimisation (0=memory, 3=speed)          :                 3             |
 |  Length Unit                               :               Ang             |
 |  Post-processing setup (write *.nnkp)      :                 F             |
 |  Using Gamma-only branch of algorithms     :                 F             |
 *----------------------------------------------------------------------------*
 *------------------------------- WANNIERISE ---------------------------------*
 |  Total number of iterations                :             10000             |
 |  Number of CG steps before reset           :                 5             |
 |  Trial step length for line search         :             2.000             |
 |  Convergence tolerence                     :         0.100E-11             |
 |  Convergence window                        :                 5             |
 |  Iterations between writing output         :               200             |
 |  Iterations between backing up to disk     :               100             |
 |  Write r^2_nm to file                      :                 F             |
 |  Write xyz WF centres to file              :                 F             |
 |  Write on-site energies <0n|H|0n> to file  :                 F             |
 |  Use guiding centre to control phases      :                 F             |
 |  Use phases for initial projections        :                 F             |
 *----------------------------------------------------------------------------*
 *-------------------------------- PLOTTING ----------------------------------*
 |  Plotting interpolated bandstructure       :                 T             |
 |   Number of K-path sections                :                 7             |
 |   Divisions along first K-path section     :               100             |
 |   Output format                            :           gnuplot             |
 |   Output mode                              :               s-k             |
 *----------------------------------------------------------------------------*
 |   K-space path sections:                                                   |
 |    From: G       0.000  0.000  0.000     To: X       0.000  0.500  0.000   |
 |    From: X       0.000  0.500  0.000     To: M       0.500  0.500  0.000   |
 |    From: M       0.500  0.500  0.000     To: G       0.000  0.000  0.000   |
 |    From: G       0.000  0.000  0.000     To: Z       0.000  0.000  0.500   |
 |    From: Z       0.000  0.000  0.500     To: R       0.000  0.500  0.500   |
 |    From: R       0.000  0.500  0.500     To: A       0.500  0.500  0.500   |
 |    From: A       0.500  0.500  0.500     To: Z       0.000  0.000  0.500   |
 *----------------------------------------------------------------------------*
 |  Plotting Hamiltonian in WF basis          :                 T             |
 *----------------------------------------------------------------------------*

 *---------------------------------- K-MESH ----------------------------------*
 +----------------------------------------------------------------------------+
 |                    Distance to Nearest-Neighbour Shells                    |
 |                    ------------------------------------                    |
 |          Shell             Distance (Ang^-1)          Multiplicity         |
 |          -----             -----------------          ------------         |
 |             1                   0.158280                      2            |
 |             2                   0.223841                      4            |
 |             3                   0.274149                      8            |
 |             4                   0.316560                      6            |
 |             5                   0.353924                      8            |
 |             6                   0.387705                      8            |
 |             7                   0.447683                     12            |
 |             8                   0.474839                     10            |
 |             9                   0.500525                      8            |
 |            10                   0.524955                     24            |
 |            11                   0.548297                      8            |
 |            12                   0.570686                      8            |
 |            13                   0.592229                     16            |
 |            14                   0.633119                      6            |
 |            15                   0.652604                     16            |
 |            16                   0.671524                     12            |
 |            17                   0.689926                     24            |
 |            18                   0.707849                     24            |
 |            19                   0.725329                     16            |
 |            20                   0.742398                      8            |
 |            21                   0.775409                     24            |
 |            22                   0.791399                     10            |
 |            23                   0.807072                     24            |
 |            24                   0.822446                     32            |
 |            25                   0.852363                     24            |
 |            26                   0.866934                     16            |
 |            27                   0.895366                     12            |
 |            28                   0.909248                     16            |
 |            29                   0.922922                     16            |
 |            30                   0.936396                     48            |
 |            31                   0.949679                     30            |
 |            32                   0.962779                      8            |
 |            33                   0.975702                     24            |
 |            34                   1.001049                     24            |
 |            35                   1.013485                     32            |
 |            36                   1.025770                     16            |
 +----------------------------------------------------------------------------+
 | The b-vectors are chosen automatically                                     |
 | Shell:  1 w_b   19.9580947      (Ang^2)                                    |
 | Shell:  1 w_b   19.9580947      (Ang^2)                                    |
 | Shell:  2 w_b    9.9790432      (Ang^2)                                    |
 | The following shells are used:   1,  2                 |
 +----------------------------------------------------------------------------+
 |                        Shell   # Nearest-Neighbours                        |
 |                        -----   --------------------                        |
 |                          1               2                                 |
 |                          2               4                                 |
 +----------------------------------------------------------------------------+
 | Completeness relation is fully satisfied [Eq. (B1), PRB 56, 12847 (1997)]  |
 +----------------------------------------------------------------------------+
 |                  b_k Vectors (Ang^-1) and Weights (Ang^2)                  |
 |                  ----------------------------------------                  |
 |            No.         b_k(x)      b_k(y)      b_k(z)        w_b           |
 |            ---        --------------------------------     --------        |
 |             1         0.000000    0.000000    0.158280    19.958095        |
 |             2         0.000000    0.000000   -0.158280    19.958095        |
 |             3         0.000000    0.223841    0.000000     9.979043        |
 |             4         0.223841    0.000000    0.000000     9.979043        |
 |             5         0.000000   -0.223841    0.000000     9.979043        |
 |             6        -0.223841    0.000000    0.000000     9.979043        |
 +----------------------------------------------------------------------------+
 |                           b_k Directions (Ang^-1)                          |
 |                           -----------------------                          |
 |            No.           x           y           z                         |
 |            ---        --------------------------------                     |
 |             1         0.000000    0.000000    0.158280                     |
 |             2         0.000000    0.223841    0.000000                     |
 |             3         0.223841    0.000000    0.000000                     |
 +----------------------------------------------------------------------------+
  
 Starting a new Wannier90 calculation ...


 Reading overlaps from smo.mmn    :  Created on 29Nov2025 at 20:40:12

 Reading projections from smo.amn :  Created on 29Nov2025 at 20:39:54

 *------------------------------- WANNIERISE ---------------------------------*
 +--------------------------------------------------------------------+<-- CONV
 | Iter  Delta Spread     RMS Gradient      Spread (Ang^2)      Time  |<-- CONV
 +--------------------------------------------------------------------+<-- CONV

 ------------------------------------------------------------------------------
 Initial State
  WF centre and spread    1  ( -0.000103,  0.000018, -0.000018 )     1.49652081
  WF centre and spread    2  (  0.000048, -0.000049, -0.000026 )     1.49711694
  WF centre and spread    3  ( -0.000019, -0.000007,  0.000031 )     1.47366183
  WF centre and spread    4  (  0.000073, -0.000067,  3.969641 )     1.49875606
  WF centre and spread    5  (  0.000053, -0.000016,  3.969659 )     1.49972971
  WF centre and spread    6  (  0.000013,  0.000015,  3.969684 )     1.49098536
  WF centre and spread    7  (  2.806903,  2.807052,  3.969670 )     1.50613345
  WF centre and spread    8  (  2.806923,  2.807009,  3.969676 )     1.50572504
  WF centre and spread    9  (  2.806981,  2.806961,  3.969672 )     1.47898964
  WF centre and spread   10  (  2.807088,  2.806960,  0.000013 )     1.50910768
  WF centre and spread   11  (  2.806927,  2.807043,  0.000016 )     1.50826604
  WF centre and spread   12  (  2.806981,  2.806992, -0.000015 )     1.46404261
  WF centre and spread   13  (  0.118608, -0.099827,  0.126509 )    47.88552941
  WF centre and spread   14  ( -0.037539,  0.029156, -0.090446 )    43.25784644
  WF centre and spread   15  (  0.010286,  0.071954,  3.869531 )    45.91237269
  WF centre and spread   16  ( -0.055819, -0.013635,  3.971532 )    41.58356584
  WF centre and spread   17  (  2.804527,  2.824343,  4.232492 )    51.13362826
  WF centre and spread   18  (  2.817935,  2.814702,  3.879187 )    42.43015960
  WF centre and spread   19  (  2.851179,  2.809727, -0.128865 )    51.02093523
  WF centre and spread   20  (  2.786708,  2.758421, -0.143375 )    44.12807052
  WF centre and spread   21  (  1.403453,  4.210523, -0.000225 )     1.19773450
  WF centre and spread   22  (  1.407129,  4.211244, -0.014621 )     8.09312881
  WF centre and spread   23  (  1.399001,  4.205153, -0.014253 )     8.09217088
  WF centre and spread   24  (  1.403463,  1.403436,  0.000315 )     1.19425466
  WF centre and spread   25  (  1.398793,  1.400787, -0.003680 )     8.11172734
  WF centre and spread   26  (  1.392727,  1.407761, -0.002574 )     8.12956001
  WF centre and spread   27  (  4.210494,  1.403478,  3.969679 )     1.19292487
  WF centre and spread   28  (  4.205874,  1.402542,  3.971593 )     7.88635686
  WF centre and spread   29  (  4.218759,  1.414956,  3.973675 )     7.81143418
  WF centre and spread   30  (  4.210469,  4.210487,  3.969605 )     1.19041879
  WF centre and spread   31  (  4.201718,  4.219544,  3.963012 )     7.87641442
  WF centre and spread   32  (  4.218012,  4.203380,  3.960909 )     7.90677127
  WF centre and spread   33  (  4.210488,  1.403474,  0.000143 )     1.19690938
  WF centre and spread   34  (  4.208047,  1.394453, -0.017728 )     8.00459364
  WF centre and spread   35  (  4.216477,  1.399696, -0.016422 )     8.02277280
  WF centre and spread   36  (  4.210535,  4.210547, -0.000271 )     1.19179941
  WF centre and spread   37  (  4.205274,  4.218496, -0.007042 )     8.19004391
  WF centre and spread   38  (  4.212075,  4.210646, -0.006246 )     8.13698444
  WF centre and spread   39  (  1.403468,  4.210475,  3.969603 )     1.19769216
  WF centre and spread   40  (  1.411710,  4.220109,  3.975399 )     7.69690821
  WF centre and spread   41  (  1.400146,  4.209519,  3.973690 )     7.77858484
  WF centre and spread   42  (  1.403473,  1.403490,  3.969768 )     1.19096105
  WF centre and spread   43  (  1.405723,  1.387558,  3.959582 )     7.99652378
  WF centre and spread   44  (  1.391654,  1.404281,  3.959472 )     7.92463843
  WF centre and spread   45  (  0.004711,  0.007820,  2.036011 )    14.65028296
  WF centre and spread   46  ( -0.000037, -0.000064,  1.984765 )     1.14396465
  WF centre and spread   47  (  0.000004, -0.000251,  1.984826 )     1.14038333
  WF centre and spread   48  (  0.000182, -0.001040,  5.905789 )    14.52619162
  WF centre and spread   49  (  0.000001, -0.000110,  5.954520 )     1.14110803
  WF centre and spread   50  (  0.000019, -0.000166,  5.954439 )     1.13998183
  WF centre and spread   51  (  2.817278,  2.808641,  6.001780 )    15.31335669
  WF centre and spread   52  (  2.806941,  2.807063,  5.954488 )     1.14416999
  WF centre and spread   53  (  2.806936,  2.807136,  5.954475 )     1.14457019
  WF centre and spread   54  (  2.809737,  2.810442,  1.987391 )    15.48944009
  WF centre and spread   55  (  2.807009,  2.807052,  1.984858 )     1.14282474
  WF centre and spread   56  (  2.806967,  2.807261,  1.984838 )     1.14315128
  Sum of centres and spreads (112.346462,112.256574,134.756132 )   591.61187718

      0     0.592E+03     0.0000000000      591.6118771800       0.00  <-- CONV
        O_D=     26.6082466 O_OD=    402.7469050 O_TOT=    591.6118772 <-- SPRD
 ------------------------------------------------------------------------------
 Cycle:      1
  WF centre and spread    1  ( -0.000103,  0.000019, -0.000014 )     1.49527203
  WF centre and spread    2  (  0.000046, -0.000049, -0.000023 )     1.49580631
  WF centre and spread    3  ( -0.000019, -0.000006,  0.000029 )     1.47265218
  WF centre and spread    4  (  0.000073, -0.000068,  3.969642 )     1.49738815
  WF centre and spread    5  (  0.000053, -0.000016,  3.969662 )     1.49835075
  WF centre and spread    6  (  0.000013,  0.000014,  3.969686 )     1.49011063
  WF centre and spread    7  (  2.806903,  2.807052,  3.969669 )     1.50475889
  WF centre and spread    8  (  2.806923,  2.807009,  3.969676 )     1.50435960
  WF centre and spread    9  (  2.806980,  2.806961,  3.969673 )     1.47800984
  WF centre and spread   10  (  2.807089,  2.806960,  0.000010 )     1.50788829
  WF centre and spread   11  (  2.806928,  2.807042,  0.000014 )     1.50700416
  WF centre and spread   12  (  2.806980,  2.806991, -0.000016 )     1.46289470
  WF centre and spread   13  (  0.116072, -0.099079,  0.122464 )    47.68156933
  WF centre and spread   14  ( -0.038161,  0.029291, -0.090279 )    43.21944273
  WF centre and spread   15  (  0.008452,  0.070694,  3.879301 )    45.66317808
  WF centre and spread   16  ( -0.055980, -0.014538,  3.971389 )    41.53789817
  WF centre and spread   17  (  2.806835,  2.825337,  4.166906 )    49.57319927
  WF centre and spread   18  (  2.818063,  2.814004,  3.878918 )    42.38065262
  WF centre and spread   19  (  2.850698,  2.812835, -0.089239 )    49.45422297
  WF centre and spread   20  (  2.780010,  2.757544, -0.143949 )    44.02741140
  WF centre and spread   21  (  1.403455,  4.210522, -0.000208 )     1.19653190
  WF centre and spread   22  (  1.407040,  4.211292, -0.014604 )     8.06733109
  WF centre and spread   23  (  1.398829,  4.205158, -0.014243 )     8.06735333
  WF centre and spread   24  (  1.403464,  1.403437,  0.000330 )     1.19312028
  WF centre and spread   25  (  1.398811,  1.400773, -0.003599 )     8.08901809
  WF centre and spread   26  (  1.392737,  1.407797, -0.002523 )     8.10741746
  WF centre and spread   27  (  4.210494,  1.403478,  3.969671 )     1.19162636
  WF centre and spread   28  (  4.205777,  1.402547,  3.971631 )     7.86426563
  WF centre and spread   29  (  4.218733,  1.415030,  3.973719 )     7.78961915
  WF centre and spread   30  (  4.210469,  4.210485,  3.969597 )     1.18908584
  WF centre and spread   31  (  4.201736,  4.219541,  3.963146 )     7.85080596
  WF centre and spread   32  (  4.218110,  4.203301,  3.961051 )     7.88160946
  WF centre and spread   33  (  4.210486,  1.403476,  0.000164 )     1.19568272
  WF centre and spread   34  (  4.207942,  1.394515, -0.017738 )     7.98068282
  WF centre and spread   35  (  4.216423,  1.399835, -0.016485 )     7.99970353
  WF centre and spread   36  (  4.210534,  4.210545, -0.000262 )     1.19065080
  WF centre and spread   37  (  4.205258,  4.218516, -0.007025 )     8.16575036
  WF centre and spread   38  (  4.212083,  4.210632, -0.006258 )     8.11381821
  WF centre and spread   39  (  1.403467,  4.210475,  3.969593 )     1.19637514
  WF centre and spread   40  (  1.411598,  4.220063,  3.975459 )     7.67528179
  WF centre and spread   41  (  1.399961,  4.209390,  3.973741 )     7.75753297
  WF centre and spread   42  (  1.403472,  1.403491,  3.969760 )     1.18959539
  WF centre and spread   43  (  1.405728,  1.387456,  3.959659 )     7.96954540
  WF centre and spread   44  (  1.391586,  1.404232,  3.959565 )     7.89809720
  WF centre and spread   45  (  0.004663,  0.007947,  2.036338 )    14.61474994
  WF centre and spread   46  ( -0.000037, -0.000063,  1.984765 )     1.14312660
  WF centre and spread   47  (  0.000004, -0.000255,  1.984827 )     1.13960299
  WF centre and spread   48  (  0.000123, -0.000828,  5.905793 )    14.49557776
  WF centre and spread   49  (  0.000001, -0.000109,  5.954520 )     1.14022763
  WF centre and spread   50  (  0.000020, -0.000168,  5.954440 )     1.13921223
  WF centre and spread   51  (  2.817022,  2.808541,  6.002421 )    15.31557818
  WF centre and spread   52  (  2.806940,  2.807063,  5.954487 )     1.14334519
  WF centre and spread   53  (  2.806936,  2.807137,  5.954473 )     1.14373721
  WF centre and spread   54  (  2.809427,  2.810677,  1.986548 )    15.50118647
  WF centre and spread   55  (  2.807007,  2.807053,  1.984859 )     1.14203889
  WF centre and spread   56  (  2.806968,  2.807264,  1.984839 )     1.14236837
  Sum of centres and spreads (112.335125,112.258244,134.735970 )   587.33332245

      1    -0.428E+01    37.6214858163      587.3333224482       0.09  <-- CONV
        O_D=     23.0892453 O_OD=    401.9873516 O_TOT=    587.3333224 <-- SPRD
 Delta: O_D= -0.3519001E+01 O_OD= -0.7595534E+00 O_TOT= -0.4278555E+01 <-- DLTA
 ------------------------------------------------------------------------------
 Cycle:    200
  WF centre and spread    1  ( -0.000207, -0.000214,  0.000210 )     1.36219915
  WF centre and spread    2  ( -0.000266,  0.000265, -0.000632 )     1.36185931
  WF centre and spread    3  ( -0.000242,  0.000015,  0.000044 )     1.34581862
  WF centre and spread    4  ( -0.000182, -0.000191,  3.970471 )     1.36370353
  WF centre and spread    5  (  0.000122, -0.000085,  3.969533 )     1.36331918
  WF centre and spread    6  ( -0.000715,  0.000021,  3.969641 )     1.34891019
  WF centre and spread    7  (  2.807266,  2.807271,  3.970359 )     1.36710877
  WF centre and spread    8  (  2.806776,  2.807072,  3.969623 )     1.36678035
  WF centre and spread    9  (  2.807189,  2.806440,  3.969696 )     1.34710867
  WF centre and spread   10  (  2.807125,  2.807089,  0.000400 )     1.36811040
  WF centre and spread   11  (  2.807058,  2.806896, -0.000434 )     1.37086416
  WF centre and spread   12  (  2.807571,  2.805998,  0.000016 )     1.34690556
  WF centre and spread   13  ( -0.269462,  0.604732,  0.475512 )    26.37247177
  WF centre and spread   14  (  0.169727,  0.361667,  0.055485 )    32.70586111
  WF centre and spread   15  ( -0.555137,  0.763759,  3.826881 )    24.17824660
  WF centre and spread   16  ( -0.260275, -0.127985,  4.013997 )    18.25676361
  WF centre and spread   17  (  2.685627,  2.853368,  4.236879 )    31.94658894
  WF centre and spread   18  (  3.359319,  2.919098,  3.963087 )    17.42214342
  WF centre and spread   19  (  2.628694,  3.167319,  0.418977 )    24.45328405
  WF centre and spread   20  (  3.008377,  2.899297,  0.110809 )    19.21051643
  WF centre and spread   21  (  1.403618,  4.210304,  0.001241 )     1.07789058
  WF centre and spread   22  (  1.397138,  4.218186,  0.000614 )     1.27899302
  WF centre and spread   23  (  1.392975,  4.217349,  0.000479 )     1.28774957
  WF centre and spread   24  (  1.403493,  1.403536,  0.000850 )     1.06434644
  WF centre and spread   25  (  1.397470,  1.400819,  0.000245 )     1.27849034
  WF centre and spread   26  (  1.406482,  1.404408,  0.000506 )     1.27476309
  WF centre and spread   27  (  4.210555,  1.403579,  3.971395 )     1.05456669
  WF centre and spread   28  (  4.210063,  1.391893,  3.970201 )     1.31864164
  WF centre and spread   29  (  4.226354,  1.403441,  3.969761 )     1.30488886
  WF centre and spread   30  (  4.210300,  4.210427,  3.972249 )     1.06685244
  WF centre and spread   31  (  4.213195,  4.225782,  3.969340 )     1.32552858
  WF centre and spread   32  (  4.223048,  4.211743,  3.969707 )     1.32340153
  WF centre and spread   33  (  4.210375,  1.403608,  0.001252 )     1.08511127
  WF centre and spread   34  (  4.214065,  1.397161,  0.000397 )     1.26569147
  WF centre and spread   35  (  4.219488,  1.395750,  0.000326 )     1.25485158
  WF centre and spread   36  (  4.210319,  4.210291,  0.000838 )     1.07073772
  WF centre and spread   37  (  4.208229,  4.213606,  0.000422 )     1.27896592
  WF centre and spread   38  (  4.214172,  4.208441,  0.000740 )     1.26051963
  WF centre and spread   39  (  1.403419,  4.210526,  3.971098 )     1.05501637
  WF centre and spread   40  (  1.404980,  4.213658,  3.969944 )     1.33601752
  WF centre and spread   41  (  1.404516,  4.208951,  3.969550 )     1.33729328
  WF centre and spread   42  (  1.403558,  1.403260,  3.971479 )     1.05770800
  WF centre and spread   43  (  1.401728,  1.394596,  3.969202 )     1.31507938
  WF centre and spread   44  (  1.396508,  1.399307,  3.969529 )     1.31670186
  WF centre and spread   45  ( -0.002798,  0.003648,  2.001568 )     1.51306779
  WF centre and spread   46  ( -0.001835,  0.000154,  1.984626 )     1.03507617
  WF centre and spread   47  (  0.000433,  0.000886,  1.984691 )     1.03642621
  WF centre and spread   48  ( -0.002327,  0.003072,  5.939481 )     1.54169786
  WF centre and spread   49  ( -0.001592,  0.000318,  5.954444 )     1.03507461
  WF centre and spread   50  (  0.000896,  0.002399,  5.954395 )     1.03547497
  WF centre and spread   51  (  2.807189,  2.808243,  5.958000 )     1.44490065
  WF centre and spread   52  (  2.807711,  2.808363,  5.954133 )     1.04238322
  WF centre and spread   53  (  2.806913,  2.810551,  5.954547 )     1.03883262
  WF centre and spread   54  (  2.807236,  2.807773,  1.980567 )     1.45432445
  WF centre and spread   55  (  2.806978,  2.808396,  1.984973 )     1.04603161
  WF centre and spread   56  (  2.807032,  2.809641,  1.984604 )     1.04273881
  Sum of centres and spreads (111.830245,114.505899,136.207947 )   254.41439957

    200    -0.481E-02     2.2172792776      254.4143995701      18.31  <-- CONV
        O_D=      1.5569497 O_OD=     90.6007242 O_TOT=    254.4143996 <-- SPRD
 Delta: O_D=  0.1067762E-02 O_OD= -0.5875852E-02 O_TOT= -0.4808090E-02 <-- DLTA
 ------------------------------------------------------------------------------
 Cycle:    400
  WF centre and spread    1  ( -0.000200, -0.000208,  0.000269 )     1.36353722
  WF centre and spread    2  ( -0.000278,  0.000271, -0.000655 )     1.36305649
  WF centre and spread    3  ( -0.000334,  0.000025,  0.000038 )     1.34669239
  WF centre and spread    4  ( -0.000199, -0.000211,  3.970455 )     1.36462268
  WF centre and spread    5  (  0.000110, -0.000088,  3.969510 )     1.36447241
  WF centre and spread    6  ( -0.000779,  0.000017,  3.969643 )     1.34943465
  WF centre and spread    7  (  2.807233,  2.807245,  3.970394 )     1.36792044
  WF centre and spread    8  (  2.806789,  2.807067,  3.969549 )     1.36734436
  WF centre and spread    9  (  2.807247,  2.806434,  3.969695 )     1.34815060
  WF centre and spread   10  (  2.807079,  2.807048,  0.000408 )     1.36915847
  WF centre and spread   11  (  2.807036,  2.806912, -0.000441 )     1.37128384
  WF centre and spread   12  (  2.807595,  2.805986,  0.000011 )     1.34787213
  WF centre and spread   13  ( -0.345206,  0.596932,  0.433254 )    26.39049276
  WF centre and spread   14  (  0.191365,  0.407127,  0.033908 )    32.87344994
  WF centre and spread   15  ( -0.620435,  0.817855,  3.848638 )    24.04159652
  WF centre and spread   16  ( -0.274061, -0.173895,  4.013092 )    18.26817722
  WF centre and spread   17  (  2.770667,  2.818492,  4.219750 )    31.39527782
  WF centre and spread   18  (  3.375833,  2.917312,  3.952772 )    17.24380686
  WF centre and spread   19  (  2.580700,  3.142533,  0.427427 )    24.46584852
  WF centre and spread   20  (  3.010996,  2.900801,  0.087509 )    18.65305584
  WF centre and spread   21  (  1.403615,  4.210313,  0.001086 )     1.07727989
  WF centre and spread   22  (  1.396178,  4.219120,  0.000512 )     1.27166857
  WF centre and spread   23  (  1.392042,  4.218239,  0.000347 )     1.28020448
  WF centre and spread   24  (  1.403502,  1.403559,  0.000617 )     1.06469089
  WF centre and spread   25  (  1.396516,  1.400489,  0.000147 )     1.27046945
  WF centre and spread   26  (  1.406448,  1.403911,  0.000411 )     1.26822419
  WF centre and spread   27  (  4.210541,  1.403579,  3.971294 )     1.05401349
  WF centre and spread   28  (  4.210987,  1.391395,  3.970143 )     1.30473274
  WF centre and spread   29  (  4.226761,  1.401889,  3.969681 )     1.29054388
  WF centre and spread   30  (  4.210293,  4.210448,  3.972022 )     1.06493977
  WF centre and spread   31  (  4.214778,  4.226142,  3.969251 )     1.31139611
  WF centre and spread   32  (  4.223809,  4.213076,  3.969681 )     1.30867612
  WF centre and spread   33  (  4.210394,  1.403599,  0.001060 )     1.08454886
  WF centre and spread   34  (  4.215350,  1.396196,  0.000330 )     1.25410972
  WF centre and spread   35  (  4.220702,  1.394215,  0.000245 )     1.24521804
  WF centre and spread   36  (  4.210338,  4.210316,  0.000580 )     1.07167656
  WF centre and spread   37  (  4.209079,  4.213780,  0.000324 )     1.27091993
  WF centre and spread   38  (  4.214518,  4.209357,  0.000600 )     1.24981528
  WF centre and spread   39  (  1.403432,  4.210541,  3.971019 )     1.05454323
  WF centre and spread   40  (  1.404543,  4.213917,  3.969889 )     1.32247495
  WF centre and spread   41  (  1.403930,  4.209201,  3.969527 )     1.32616210
  WF centre and spread   42  (  1.403547,  1.403275,  3.971296 )     1.05629344
  WF centre and spread   43  (  1.400359,  1.394959,  3.969187 )     1.30735890
  WF centre and spread   44  (  1.396744,  1.398344,  3.969476 )     1.30756162
  WF centre and spread   45  ( -0.002497,  0.002925,  2.000293 )     1.48443096
  WF centre and spread   46  ( -0.001925,  0.000067,  1.984653 )     1.03444871
  WF centre and spread   47  (  0.000236,  0.000820,  1.984743 )     1.03552976
  WF centre and spread   48  ( -0.002261,  0.002355,  5.940212 )     1.51057253
  WF centre and spread   49  ( -0.001738,  0.000236,  5.954443 )     1.03416736
  WF centre and spread   50  (  0.000735,  0.002091,  5.954387 )     1.03479618
  WF centre and spread   51  (  2.807191,  2.807897,  5.960234 )     1.42740478
  WF centre and spread   52  (  2.807277,  2.808200,  5.954129 )     1.04132541
  WF centre and spread   53  (  2.806736,  2.810114,  5.954565 )     1.03727440
  WF centre and spread   54  (  2.807288,  2.807508,  1.977295 )     1.43413490
  WF centre and spread   55  (  2.806614,  2.808196,  1.984988 )     1.04450644
  WF centre and spread   56  (  2.806755,  2.809388,  1.984609 )     1.04069953
  Sum of centres and spreads (111.753975,114.487310,136.118501 )   252.93206436

    400    -0.227E-02     1.5884106564      252.9320643635      36.74  <-- CONV
        O_D=      1.3401798 O_OD=     89.3351590 O_TOT=    252.9320644 <-- SPRD
 Delta: O_D= -0.1061803E-02 O_OD= -0.1211356E-02 O_TOT= -0.2273159E-02 <-- DLTA
 ------------------------------------------------------------------------------
 Cycle:    600
  WF centre and spread    1  ( -0.000178, -0.000188,  0.000293 )     1.36442555
  WF centre and spread    2  ( -0.000263,  0.000258, -0.000679 )     1.36377920
  WF centre and spread    3  ( -0.000364,  0.000033,  0.000036 )     1.34707835
  WF centre and spread    4  ( -0.000185, -0.000199,  3.970446 )     1.36541112
  WF centre and spread    5  (  0.000126, -0.000106,  3.969488 )     1.36523525
  WF centre and spread    6  ( -0.000793,  0.000014,  3.969645 )     1.34967451
  WF centre and spread    7  (  2.807232,  2.807248,  3.970405 )     1.36863978
  WF centre and spread    8  (  2.806811,  2.807053,  3.969504 )     1.36782252
  WF centre and spread    9  (  2.807277,  2.806432,  3.969691 )     1.34860811
  WF centre and spread   10  (  2.807075,  2.807045,  0.000407 )     1.36991995
  WF centre and spread   11  (  2.807048,  2.806900, -0.000463 )     1.37169887
  WF centre and spread   12  (  2.807604,  2.805988,  0.000008 )     1.34827861
  WF centre and spread   13  ( -0.367592,  0.597967,  0.414565 )    26.41414100
  WF centre and spread   14  (  0.205314,  0.426824,  0.028319 )    32.94933536
  WF centre and spread   15  ( -0.646381,  0.844534,  3.858641 )    23.97835590
  WF centre and spread   16  ( -0.276597, -0.198968,  4.013484 )    18.31273529
  WF centre and spread   17  (  2.811676,  2.804441,  4.213648 )    31.12441642
  WF centre and spread   18  (  3.381519,  2.917356,  3.948526 )    17.18804420
  WF centre and spread   19  (  2.555654,  3.126837,  0.432058 )    24.48163483
  WF centre and spread   20  (  3.008659,  2.901455,  0.078456 )    18.42854438
  WF centre and spread   21  (  1.403620,  4.210311,  0.000971 )     1.07710541
  WF centre and spread   22  (  1.395709,  4.219568,  0.000473 )     1.26960685
  WF centre and spread   23  (  1.391651,  4.218658,  0.000291 )     1.27750576
  WF centre and spread   24  (  1.403508,  1.403578,  0.000453 )     1.06501269
  WF centre and spread   25  (  1.396152,  1.400303,  0.000117 )     1.26769697
  WF centre and spread   26  (  1.406333,  1.403634,  0.000378 )     1.26568202
  WF centre and spread   27  (  4.210543,  1.403572,  3.971257 )     1.05428184
  WF centre and spread   28  (  4.211467,  1.391113,  3.970114 )     1.29950306
  WF centre and spread   29  (  4.226995,  1.401149,  3.969654 )     1.28501740
  WF centre and spread   30  (  4.210301,  4.210461,  3.971941 )     1.06462917
  WF centre and spread   31  (  4.215574,  4.226365,  3.969218 )     1.30581050
  WF centre and spread   32  (  4.224227,  4.213726,  3.969669 )     1.30265989
  WF centre and spread   33  (  4.210403,  1.403588,  0.000966 )     1.08430865
  WF centre and spread   34  (  4.215953,  1.395686,  0.000305 )     1.25047257
  WF centre and spread   35  (  4.221297,  1.393502,  0.000212 )     1.24202250
  WF centre and spread   36  (  4.210354,  4.210336,  0.000464 )     1.07229065
  WF centre and spread   37  (  4.209522,  4.213961,  0.000291 )     1.26856700
  WF centre and spread   38  (  4.214733,  4.209858,  0.000552 )     1.24645345
  WF centre and spread   39  (  1.403447,  4.210543,  3.970996 )     1.05482247
  WF centre and spread   40  (  1.404361,  4.214101,  3.969858 )     1.31688071
  WF centre and spread   41  (  1.403600,  4.209347,  3.969517 )     1.32157667
  WF centre and spread   42  (  1.403548,  1.403288,  3.971230 )     1.05620282
  WF centre and spread   43  (  1.399742,  1.394998,  3.969188 )     1.30467783
  WF centre and spread   44  (  1.396763,  1.397868,  3.969450 )     1.30415753
  WF centre and spread   45  ( -0.002362,  0.002674,  1.999850 )     1.47401993
  WF centre and spread   46  ( -0.001949,  0.000045,  1.984667 )     1.03437403
  WF centre and spread   47  (  0.000147,  0.000801,  1.984762 )     1.03520283
  WF centre and spread   48  ( -0.002225,  0.002098,  5.940486 )     1.49923373
  WF centre and spread   49  ( -0.001781,  0.000216,  5.954448 )     1.03398971
  WF centre and spread   50  (  0.000658,  0.001969,  5.954387 )     1.03453917
  WF centre and spread   51  (  2.807189,  2.807783,  5.961100 )     1.42326436
  WF centre and spread   52  (  2.807110,  2.808097,  5.954138 )     1.04092403
  WF centre and spread   53  (  2.806650,  2.809942,  5.954573 )     1.03665504
  WF centre and spread   54  (  2.807300,  2.807416,  1.976052 )     1.42843593
  WF centre and spread   55  (  2.806500,  2.808087,  1.985000 )     1.04393735
  WF centre and spread   56  (  2.806650,  2.809282,  1.984611 )     1.03993131
  Sum of centres and spreads (111.737330,114.478850,136.088114 )   252.38923102

    600    -0.104E-01     6.2922599508      252.3892310208      55.19  <-- CONV
        O_D=      1.2769152 O_OD=     88.8555902 O_TOT=    252.3892310 <-- SPRD
 Delta: O_D= -0.8813082E-02 O_OD= -0.1633565E-02 O_TOT= -0.1044665E-01 <-- DLTA
 ------------------------------------------------------------------------------
 Cycle:    800
  WF centre and spread    1  ( -0.000153, -0.000167,  0.000346 )     1.36631543
  WF centre and spread    2  ( -0.000247,  0.000242, -0.000728 )     1.36563951
  WF centre and spread    3  ( -0.000392,  0.000035,  0.000035 )     1.34740671
  WF centre and spread    4  ( -0.000167, -0.000186,  3.970478 )     1.36719228
  WF centre and spread    5  (  0.000143, -0.000124,  3.969434 )     1.36708998
  WF centre and spread    6  ( -0.000802,  0.000006,  3.969647 )     1.34988574
  WF centre and spread    7  (  2.807242,  2.807257,  3.970451 )     1.37039477
  WF centre and spread    8  (  2.806834,  2.807037,  3.969429 )     1.36951863
  WF centre and spread    9  (  2.807296,  2.806426,  3.969691 )     1.34899273
  WF centre and spread   10  (  2.807078,  2.807052,  0.000448 )     1.37173889
  WF centre and spread   11  (  2.807064,  2.806886, -0.000518 )     1.37319526
  WF centre and spread   12  (  2.807606,  2.805990,  0.000007 )     1.34862675
  WF centre and spread   13  ( -0.400971,  0.592963,  0.398944 )    26.39217601
  WF centre and spread   14  (  0.218510,  0.447113,  0.023084 )    33.03388494
  WF centre and spread   15  ( -0.662172,  0.867013,  3.864442 )    23.92310729
  WF centre and spread   16  ( -0.276701, -0.221957,  4.015184 )    18.36131132
  WF centre and spread   17  (  2.842246,  2.794917,  4.202436 )    30.89910090
  WF centre and spread   18  (  3.381997,  2.917948,  3.945461 )    17.14089384
  WF centre and spread   19  (  2.533919,  3.114289,  0.430714 )    24.49816882
  WF centre and spread   20  (  3.004711,  2.902118,  0.073263 )    18.27641589
  WF centre and spread   21  (  1.403625,  4.210304,  0.000940 )     1.07726583
  WF centre and spread   22  (  1.395333,  4.219943,  0.000452 )     1.26935877
  WF centre and spread   23  (  1.391352,  4.219000,  0.000258 )     1.27559975
  WF centre and spread   24  (  1.403524,  1.403591,  0.000352 )     1.06554142
  WF centre and spread   25  (  1.395944,  1.400224,  0.000089 )     1.26723987
  WF centre and spread   26  (  1.406310,  1.403477,  0.000357 )     1.26453608
  WF centre and spread   27  (  4.210550,  1.403562,  3.971222 )     1.05463351
  WF centre and spread   28  (  4.211876,  1.390882,  3.970105 )     1.29609483
  WF centre and spread   29  (  4.227199,  1.400578,  3.969642 )     1.28072020
  WF centre and spread   30  (  4.210305,  4.210480,  3.971856 )     1.06455899
  WF centre and spread   31  (  4.216259,  4.226582,  3.969196 )     1.30248875
  WF centre and spread   32  (  4.224568,  4.214300,  3.969667 )     1.29837019
  WF centre and spread   33  (  4.210419,  1.403584,  0.000893 )     1.08449933
  WF centre and spread   34  (  4.216437,  1.395253,  0.000292 )     1.24893122
  WF centre and spread   35  (  4.221785,  1.392917,  0.000194 )     1.23993711
  WF centre and spread   36  (  4.210367,  4.210347,  0.000397 )     1.07303063
  WF centre and spread   37  (  4.209826,  4.214052,  0.000268 )     1.26834860
  WF centre and spread   38  (  4.214826,  4.210236,  0.000523 )     1.24466210
  WF centre and spread   39  (  1.403459,  4.210547,  3.970974 )     1.05519975
  WF centre and spread   40  (  1.404202,  4.214313,  3.969850 )     1.31347703
  WF centre and spread   41  (  1.403298,  4.209524,  3.969517 )     1.31826634
  WF centre and spread   42  (  1.403551,  1.403300,  3.971164 )     1.05627161
  WF centre and spread   43  (  1.399253,  1.394993,  3.969181 )     1.30350301
  WF centre and spread   44  (  1.396752,  1.397480,  3.969432 )     1.30172436
  WF centre and spread   45  ( -0.002274,  0.002524,  1.999665 )     1.46855356
  WF centre and spread   46  ( -0.001961,  0.000013,  1.984680 )     1.03468464
  WF centre and spread   47  (  0.000076,  0.000780,  1.984775 )     1.03504781
  WF centre and spread   48  ( -0.002213,  0.001924,  5.940681 )     1.49342536
  WF centre and spread   49  ( -0.001813,  0.000189,  5.954449 )     1.03429594
  WF centre and spread   50  (  0.000591,  0.001870,  5.954389 )     1.03442116
  WF centre and spread   51  (  2.807198,  2.807707,  5.961914 )     1.41943242
  WF centre and spread   52  (  2.806995,  2.808029,  5.954148 )     1.04109781
  WF centre and spread   53  (  2.806583,  2.809812,  5.954583 )     1.03627549
  WF centre and spread   54  (  2.807306,  2.807353,  1.974952 )     1.42432243
  WF centre and spread   55  (  2.806393,  2.808012,  1.985008 )     1.04429249
  WF centre and spread   56  (  2.806562,  2.809204,  1.984613 )     1.03939345
  Sum of centres and spreads (111.707503,114.471744,136.052925 )   252.00055754

    800    -0.216E-01     3.1407055167      252.0005575413      73.59  <-- CONV
        O_D=      1.2218764 O_OD=     88.5219555 O_TOT=    252.0005575 <-- SPRD
 Delta: O_D= -0.9133372E-02 O_OD= -0.1251131E-01 O_TOT= -0.2164468E-01 <-- DLTA
 ------------------------------------------------------------------------------
 Cycle:   1000
  WF centre and spread    1  ( -0.000176, -0.000188,  0.000327 )     1.36532514
  WF centre and spread    2  ( -0.000278,  0.000268, -0.000684 )     1.36448111
  WF centre and spread    3  ( -0.000419,  0.000050,  0.000033 )     1.34766731
  WF centre and spread    4  ( -0.000195, -0.000214,  3.970436 )     1.36607725
  WF centre and spread    5  (  0.000116, -0.000099,  3.969471 )     1.36593898
  WF centre and spread    6  ( -0.000813,  0.000003,  3.969649 )     1.35009224
  WF centre and spread    7  (  2.807206,  2.807227,  3.970415 )     1.36917539
  WF centre and spread    8  (  2.806809,  2.807063,  3.969447 )     1.36812307
  WF centre and spread    9  (  2.807315,  2.806423,  3.969688 )     1.34934488
  WF centre and spread   10  (  2.807038,  2.807018,  0.000407 )     1.37060729
  WF centre and spread   11  (  2.807035,  2.806912, -0.000479 )     1.37174630
  WF centre and spread   12  (  2.807608,  2.805998,  0.000004 )     1.34894500
  WF centre and spread   13  ( -0.416602,  0.589083,  0.378046 )    26.43973514
  WF centre and spread   14  (  0.238061,  0.463072,  0.016137 )    33.08827239
  WF centre and spread   15  ( -0.681779,  0.894257,  3.872867 )    23.86391793
  WF centre and spread   16  ( -0.275573, -0.249460,  4.017309 )    18.42669085
  WF centre and spread   17  (  2.877341,  2.785763,  4.199805 )    30.60370209
  WF centre and spread   18  (  3.384354,  2.919169,  3.941860 )    17.10704007
  WF centre and spread   19  (  2.507912,  3.097221,  0.436874 )    24.51414157
  WF centre and spread   20  (  2.999016,  2.902760,  0.065064 )    18.04780742
  WF centre and spread   21  (  1.403614,  4.210317,  0.000856 )     1.07655199
  WF centre and spread   22  (  1.394854,  4.220383,  0.000411 )     1.26649443
  WF centre and spread   23  (  1.391045,  4.219379,  0.000223 )     1.27350010
  WF centre and spread   24  (  1.403520,  1.403592,  0.000208 )     1.06527856
  WF centre and spread   25  (  1.395650,  1.400028,  0.000075 )     1.26347407
  WF centre and spread   26  (  1.406109,  1.403191,  0.000327 )     1.26226295
  WF centre and spread   27  (  4.210538,  1.403568,  3.971169 )     1.05419380
  WF centre and spread   28  (  4.212315,  1.390607,  3.970079 )     1.29089459
  WF centre and spread   29  (  4.227439,  1.399946,  3.969627 )     1.27645766
  WF centre and spread   30  (  4.210292,  4.210480,  3.971791 )     1.06369787
  WF centre and spread   31  (  4.217002,  4.226842,  3.969184 )     1.29713282
  WF centre and spread   32  (  4.224979,  4.214932,  3.969660 )     1.29382555
  WF centre and spread   33  (  4.210419,  1.403584,  0.000790 )     1.08372115
  WF centre and spread   34  (  4.216951,  1.394750,  0.000265 )     1.24538620
  WF centre and spread   35  (  4.222340,  1.392293,  0.000171 )     1.23784634
  WF centre and spread   36  (  4.210373,  4.210354,  0.000309 )     1.07308081
  WF centre and spread   37  (  4.210214,  4.214264,  0.000252 )     1.26559485
  WF centre and spread   38  (  4.215038,  4.210713,  0.000484 )     1.24260379
  WF centre and spread   39  (  1.403459,  4.210559,  3.970933 )     1.05478439
  WF centre and spread   40  (  1.404004,  4.214561,  3.969826 )     1.30783733
  WF centre and spread   41  (  1.402944,  4.209735,  3.969520 )     1.31471815
  WF centre and spread   42  (  1.403541,  1.403303,  3.971104 )     1.05559805
  WF centre and spread   43  (  1.398695,  1.394931,  3.969182 )     1.30031978
  WF centre and spread   44  (  1.396702,  1.397030,  3.969405 )     1.29927307
  WF centre and spread   45  ( -0.002156,  0.002350,  1.999228 )     1.46046700
  WF centre and spread   46  ( -0.001973, -0.000007,  1.984691 )     1.03418612
  WF centre and spread   47  (  0.000003,  0.000765,  1.984795 )     1.03485474
  WF centre and spread   48  ( -0.002188,  0.001757,  5.940967 )     1.48410658
  WF centre and spread   49  ( -0.001844,  0.000173,  5.954450 )     1.03365772
  WF centre and spread   50  (  0.000514,  0.001776,  5.954387 )     1.03422888
  WF centre and spread   51  (  2.807202,  2.807633,  5.962691 )     1.41728651
  WF centre and spread   52  (  2.806861,  2.807941,  5.954147 )     1.04033410
  WF centre and spread   53  (  2.806513,  2.809676,  5.954595 )     1.03582579
  WF centre and spread   54  (  2.807309,  2.807288,  1.973884 )     1.42095253
  WF centre and spread   55  (  2.806297,  2.807919,  1.985020 )     1.04325894
  WF centre and spread   56  (  2.806480,  2.809117,  1.984614 )     1.03880568
  Sum of centres and spreads (111.699031,114.458059,136.025999 )   251.47132432

   1000    -0.371E-03     0.9673499220      251.4713243210      91.80  <-- CONV
        O_D=      1.1693931 O_OD=     88.0452057 O_TOT=    251.4713243 <-- SPRD
 Delta: O_D= -0.7340226E-05 O_OD= -0.3639975E-03 O_TOT= -0.3713378E-03 <-- DLTA
 ------------------------------------------------------------------------------
 Cycle:   1200
  WF centre and spread    1  ( -0.000179, -0.000196,  0.000343 )     1.36595177
  WF centre and spread    2  ( -0.000290,  0.000285, -0.000697 )     1.36513993
  WF centre and spread    3  ( -0.000457,  0.000066,  0.000033 )     1.34798673
  WF centre and spread    4  ( -0.000208, -0.000225,  3.970432 )     1.36658462
  WF centre and spread    5  (  0.000102, -0.000082,  3.969450 )     1.36665832
  WF centre and spread    6  ( -0.000821, -0.000007,  3.969650 )     1.35030733
  WF centre and spread    7  (  2.807186,  2.807211,  3.970417 )     1.36975594
  WF centre and spread    8  (  2.806805,  2.807070,  3.969411 )     1.36859803
  WF centre and spread    9  (  2.807322,  2.806419,  3.969687 )     1.34971174
  WF centre and spread   10  (  2.807016,  2.806998,  0.000404 )     1.37113314
  WF centre and spread   11  (  2.807029,  2.806920, -0.000497 )     1.37214696
  WF centre and spread   12  (  2.807604,  2.806002,  0.000002 )     1.34925093
  WF centre and spread   13  ( -0.439257,  0.579807,  0.369626 )    26.46207999
  WF centre and spread   14  (  0.258988,  0.481356,  0.011974 )    33.13725571
  WF centre and spread   15  ( -0.695529,  0.919887,  3.880199 )    23.82758280
  WF centre and spread   16  ( -0.275110, -0.275421,  4.019688 )    18.52034544
  WF centre and spread   17  (  2.905468,  2.778093,  4.185097 )    30.34583079
  WF centre and spread   18  (  3.385091,  2.919654,  3.938808 )    17.07832044
  WF centre and spread   19  (  2.484713,  3.077044,  0.426696 )    24.53431843
  WF centre and spread   20  (  2.996160,  2.905047,  0.060446 )    17.90829184
  WF centre and spread   21  (  1.403609,  4.210318,  0.000832 )     1.07623410
  WF centre and spread   22  (  1.394457,  4.220801,  0.000395 )     1.26611490
  WF centre and spread   23  (  1.390791,  4.219733,  0.000197 )     1.27188959
  WF centre and spread   24  (  1.403519,  1.403600,  0.000131 )     1.06542193
  WF centre and spread   25  (  1.395476,  1.399901,  0.000055 )     1.26260795
  WF centre and spread   26  (  1.405991,  1.402965,  0.000307 )     1.26141735
  WF centre and spread   27  (  4.210536,  1.403568,  3.971112 )     1.05384792
  WF centre and spread   28  (  4.212744,  1.390347,  3.970072 )     1.28774360
  WF centre and spread   29  (  4.227666,  1.399328,  3.969618 )     1.27288445
  WF centre and spread   30  (  4.210296,  4.210487,  3.971712 )     1.06278701
  WF centre and spread   31  (  4.217722,  4.227094,  3.969160 )     1.29353021
  WF centre and spread   32  (  4.225358,  4.215545,  3.969654 )     1.28994064
  WF centre and spread   33  (  4.210415,  1.403580,  0.000727 )     1.08334584
  WF centre and spread   34  (  4.217435,  1.394297,  0.000253 )     1.24424424
  WF centre and spread   35  (  4.222842,  1.391715,  0.000156 )     1.23641889
  WF centre and spread   36  (  4.210372,  4.210357,  0.000251 )     1.07351544
  WF centre and spread   37  (  4.210549,  4.214420,  0.000237 )     1.26553922
  WF centre and spread   38  (  4.215144,  4.211107,  0.000466 )     1.24178102
  WF centre and spread   39  (  1.403464,  4.210572,  3.970895 )     1.05447443
  WF centre and spread   40  (  1.403828,  4.214831,  3.969819 )     1.30393654
  WF centre and spread   41  (  1.402592,  4.209949,  3.969519 )     1.31136437
  WF centre and spread   42  (  1.403535,  1.403306,  3.971039 )     1.05489916
  WF centre and spread   43  (  1.398195,  1.394838,  3.969168 )     1.29923349
  WF centre and spread   44  (  1.396642,  1.396591,  3.969389 )     1.29726978
  WF centre and spread   45  ( -0.002102,  0.002212,  1.999094 )     1.45623979
  WF centre and spread   46  ( -0.001987, -0.000010,  1.984703 )     1.03421167
  WF centre and spread   47  ( -0.000071,  0.000745,  1.984807 )     1.03476922
  WF centre and spread   48  ( -0.002176,  0.001628,  5.941255 )     1.47898741
  WF centre and spread   49  ( -0.001872,  0.000176,  5.954453 )     1.03370433
  WF centre and spread   50  (  0.000432,  0.001691,  5.954388 )     1.03412196
  WF centre and spread   51  (  2.807207,  2.807564,  5.963602 )     1.41291439
  WF centre and spread   52  (  2.806758,  2.807832,  5.954159 )     1.04019785
  WF centre and spread   53  (  2.806450,  2.809548,  5.954605 )     1.03551999
  WF centre and spread   54  (  2.807312,  2.807238,  1.972745 )     1.41760514
  WF centre and spread   55  (  2.806207,  2.807817,  1.985025 )     1.04333996
  WF centre and spread   56  (  2.806407,  2.809032,  1.984614 )     1.03844576
  Sum of centres and spreads (111.687377,114.440653,135.989781 )   251.14775043

   1200    -0.351E-01     7.1398508889      251.1477504347     110.30  <-- CONV
        O_D=      1.1969875 O_OD=     87.6940373 O_TOT=    251.1477504 <-- SPRD
 Delta: O_D= -0.3519464E-01 O_OD=  0.6228907E-04 O_TOT= -0.3513235E-01 <-- DLTA
 ------------------------------------------------------------------------------
 Cycle:   1400
  WF centre and spread    1  ( -0.000171, -0.000190,  0.000430 )     1.36713916
  WF centre and spread    2  ( -0.000298,  0.000296, -0.000731 )     1.36618868
  WF centre and spread    3  ( -0.000576,  0.000148,  0.000035 )     1.34894930
  WF centre and spread    4  ( -0.000217, -0.000235,  3.970448 )     1.36751240
  WF centre and spread    5  (  0.000158, -0.000120,  3.969402 )     1.36841236
  WF centre and spread    6  ( -0.000826, -0.000028,  3.969660 )     1.35092594
  WF centre and spread    7  (  2.807159,  2.807197,  3.970469 )     1.37119307
  WF centre and spread    8  (  2.806783,  2.807089,  3.969355 )     1.36942829
  WF centre and spread    9  (  2.807341,  2.806393,  3.969677 )     1.35054292
  WF centre and spread   10  (  2.806992,  2.806981,  0.000432 )     1.37218497
  WF centre and spread   11  (  2.807025,  2.806916, -0.000510 )     1.37265259
  WF centre and spread   12  (  2.807652,  2.805970,  0.000007 )     1.35067437
  WF centre and spread   13  ( -0.538633,  0.553577,  0.317156 )    26.57044307
  WF centre and spread   14  (  0.344505,  0.524779, -0.016095 )    33.47389780
  WF centre and spread   15  ( -0.715351,  0.982665,  3.894118 )    23.73678415
  WF centre and spread   16  ( -0.276990, -0.350318,  4.040511 )    18.87873354
  WF centre and spread   17  (  2.967601,  2.763368,  4.172211 )    29.69836418
  WF centre and spread   18  (  3.384737,  2.926882,  3.933391 )    17.04382300
  WF centre and spread   19  (  2.420364,  3.018140,  0.427053 )    24.60336230
  WF centre and spread   20  (  2.993076,  2.917599,  0.048762 )    17.59192329
  WF centre and spread   21  (  1.403606,  4.210323,  0.000679 )     1.07573541
  WF centre and spread   22  (  1.393458,  4.222056,  0.000359 )     1.26744133
  WF centre and spread   23  (  1.389870,  4.220811,  0.000124 )     1.27181615
  WF centre and spread   24  (  1.403535,  1.403622, -0.000195 )     1.06583858
  WF centre and spread   25  (  1.395235,  1.399970, -0.000003 )     1.26665456
  WF centre and spread   26  (  1.405902,  1.402853,  0.000295 )     1.27153277
  WF centre and spread   27  (  4.210524,  1.403548,  3.971072 )     1.05424902
  WF centre and spread   28  (  4.213764,  1.389732,  3.970054 )     1.28114034
  WF centre and spread   29  (  4.228246,  1.397880,  3.969780 )     1.26596407
  WF centre and spread   30  (  4.210301,  4.210526,  3.971655 )     1.06299740
  WF centre and spread   31  (  4.219441,  4.227758,  3.969240 )     1.28562020
  WF centre and spread   32  (  4.226326,  4.217125,  3.969670 )     1.28154185
  WF centre and spread   33  (  4.210417,  1.403569,  0.000472 )     1.08243418
  WF centre and spread   34  (  4.218797,  1.392967,  0.000210 )     1.24313331
  WF centre and spread   35  (  4.224391,  1.390163,  0.000116 )     1.23617415
  WF centre and spread   36  (  4.210409,  4.210400,  0.000064 )     1.07487927
  WF centre and spread   37  (  4.211410,  4.214702,  0.000192 )     1.26888572
  WF centre and spread   38  (  4.215452,  4.211911,  0.000389 )     1.24500013
  WF centre and spread   39  (  1.403486,  4.210598,  3.970867 )     1.05479769
  WF centre and spread   40  (  1.403454,  4.215585,  3.969833 )     1.29558390
  WF centre and spread   41  (  1.401714,  4.210585,  3.969396 )     1.30502064
  WF centre and spread   42  (  1.403531,  1.403329,  3.971023 )     1.05435809
  WF centre and spread   43  (  1.397073,  1.394536,  3.969073 )     1.29735474
  WF centre and spread   44  (  1.396513,  1.395563,  3.969332 )     1.29417666
  WF centre and spread   45  ( -0.002078,  0.001910,  1.998866 )     1.45659078
  WF centre and spread   46  ( -0.001977, -0.000091,  1.984693 )     1.03636541
  WF centre and spread   47  ( -0.000266,  0.000551,  1.984840 )     1.03513017
  WF centre and spread   48  ( -0.002486,  0.001200,  5.941265 )     1.47793016
  WF centre and spread   49  ( -0.002071,  0.000139,  5.954496 )     1.03533267
  WF centre and spread   50  (  0.000258,  0.001388,  5.954363 )     1.03429725
  WF centre and spread   51  (  2.807176,  2.807435,  5.965122 )     1.41317663
  WF centre and spread   52  (  2.806237,  2.807567,  5.954190 )     1.04321708
  WF centre and spread   53  (  2.806326,  2.809189,  5.954627 )     1.03540904
  WF centre and spread   54  (  2.807357,  2.807173,  1.970928 )     1.41396943
  WF centre and spread   55  (  2.805828,  2.807470,  1.985042 )     1.04533163
  WF centre and spread   56  (  2.806269,  2.808746,  1.984596 )     1.03830265
  Sum of centres and spreads (111.647763,114.389899,135.912507 )   250.92051843

   1400    -0.675E-01     5.3365737971      250.9205184262     128.66  <-- CONV
        O_D=      1.2875759 O_OD=     87.3762169 O_TOT=    250.9205184 <-- SPRD
 Delta: O_D= -0.4584437E-02 O_OD= -0.6295198E-01 O_TOT= -0.6753642E-01 <-- DLTA
 ------------------------------------------------------------------------------
 Cycle:   1600
  WF centre and spread    1  ( -0.000145, -0.000173,  0.000480 )     1.36805057
  WF centre and spread    2  ( -0.000282,  0.000274, -0.000737 )     1.36693835
  WF centre and spread    3  ( -0.000593,  0.000180,  0.000029 )     1.34896339
  WF centre and spread    4  ( -0.000203, -0.000230,  3.970471 )     1.36822691
  WF centre and spread    5  (  0.000147, -0.000108,  3.969369 )     1.36875138
  WF centre and spread    6  ( -0.000806, -0.000033,  3.969664 )     1.35120316
  WF centre and spread    7  (  2.807180,  2.807211,  3.970493 )     1.37136951
  WF centre and spread    8  (  2.806809,  2.807072,  3.969293 )     1.36966199
  WF centre and spread    9  (  2.807358,  2.806371,  3.969676 )     1.35099365
  WF centre and spread   10  (  2.807000,  2.806989,  0.000465 )     1.37296217
  WF centre and spread   11  (  2.807046,  2.806905, -0.000537 )     1.37288724
  WF centre and spread   12  (  2.807674,  2.805979, -0.000002 )     1.35070323
  WF centre and spread   13  ( -0.554013,  0.576251,  0.287205 )    26.48717272
  WF centre and spread   14  (  0.361845,  0.548792,  0.001768 )    33.28338437
  WF centre and spread   15  ( -0.720440,  1.041212,  3.909935 )    23.68381014
  WF centre and spread   16  ( -0.272402, -0.393340,  4.044815 )    19.04510594
  WF centre and spread   17  (  3.008304,  2.762899,  4.163043 )    29.01524342
  WF centre and spread   18  (  3.376765,  2.928857,  3.930423 )    17.00317692
  WF centre and spread   19  (  2.373057,  2.969185,  0.430470 )    24.58288182
  WF centre and spread   20  (  2.979997,  2.925653,  0.041222 )    17.28527728
  WF centre and spread   21  (  1.403609,  4.210320,  0.000700 )     1.07529209
  WF centre and spread   22  (  1.393022,  4.222742,  0.000319 )     1.26638531
  WF centre and spread   23  (  1.389709,  4.221304,  0.000091 )     1.26953089
  WF centre and spread   24  (  1.403562,  1.403637, -0.000279 )     1.06643788
  WF centre and spread   25  (  1.395177,  1.399571, -0.000012 )     1.26036986
  WF centre and spread   26  (  1.405411,  1.402229,  0.000247 )     1.26118341
  WF centre and spread   27  (  4.210530,  1.403539,  3.970911 )     1.05355712
  WF centre and spread   28  (  4.214510,  1.389378,  3.970043 )     1.27638740
  WF centre and spread   29  (  4.228661,  1.396943,  3.969729 )     1.26073999
  WF centre and spread   30  (  4.210312,  4.210536,  3.971489 )     1.06093862
  WF centre and spread   31  (  4.220652,  4.228320,  3.969188 )     1.28040650
  WF centre and spread   32  (  4.227015,  4.218323,  3.969668 )     1.27676341
[...]
  WF centre and spread   13  ( -1.799967,  0.308968,  0.036852 )    27.55440748
  WF centre and spread   14  (  0.423010,  0.408701,  0.011901 )    32.55533968
  WF centre and spread   15  (  0.013833,  2.339079,  3.962400 )    23.97860017
  WF centre and spread   16  ( -0.781829, -1.598798,  4.064045 )    19.58700918
  WF centre and spread   17  (  2.839581,  2.782680,  3.972170 )    21.15625870
  WF centre and spread   18  (  2.873748,  2.834167,  3.969264 )    13.98072092
  WF centre and spread   19  (  1.757152,  2.459495,  0.335745 )    25.16190513
  WF centre and spread   20  (  2.812753,  2.910499,  0.000934 )    13.24551144
  WF centre and spread   21  (  1.403562,  4.210332,  0.000210 )     1.06590773
  WF centre and spread   22  (  1.385268,  4.239155,  0.000136 )     1.27801013
  WF centre and spread   23  (  1.380628,  4.232939, -0.000073 )     1.27664099
  WF centre and spread   24  (  1.403551,  1.403657,  0.000563 )     1.07403407
  WF centre and spread   25  (  1.392454,  1.386939, -0.000179 )     1.25740233
  WF centre and spread   26  (  1.387118,  1.386506, -0.000037 )     1.25296692
  WF centre and spread   27  (  4.210542,  1.403508,  3.969034 )     1.05632035
  WF centre and spread   28  (  4.228794,  1.380220,  3.969852 )     1.26635895
  WF centre and spread   29  (  4.238720,  1.376048,  3.969675 )     1.25128611
  WF centre and spread   30  (  4.210316,  4.210562,  3.968420 )     1.05203673
  WF centre and spread   31  (  4.235411,  4.236777,  3.969449 )     1.27636883
  WF centre and spread   32  (  4.236433,  4.241759,  3.969732 )     1.27105918
  WF centre and spread   33  (  4.210521,  1.403503,  0.000462 )     1.06877911
  WF centre and spread   34  (  4.228028,  1.382419,  0.000210 )     1.27952489
  WF centre and spread   35  (  4.236751,  1.375760, -0.000010 )     1.27221607
  WF centre and spread   36  (  4.210472,  4.210390,  0.000979 )     1.08122285
  WF centre and spread   37  (  4.223970,  4.224748, -0.000184 )     1.27071513
  WF centre and spread   38  (  4.224998,  4.228827,  0.000074 )     1.25527516
  WF centre and spread   39  (  1.403556,  4.210564,  3.969121 )     1.05623426
  WF centre and spread   40  (  1.392437,  4.232157,  3.969706 )     1.25404393
  WF centre and spread   41  (  1.383581,  4.230058,  3.969530 )     1.26125266
  WF centre and spread   42  (  1.403508,  1.403509,  3.968587 )     1.04985329
  WF centre and spread   43  (  1.384359,  1.377993,  3.969510 )     1.27964117
  WF centre and spread   44  (  1.379950,  1.375718,  3.969684 )     1.26676397
  WF centre and spread   45  ( -0.000696,  0.000394,  1.991164 )     1.37233736
  WF centre and spread   46  ( -0.001170,  0.000641,  1.984768 )     1.04008945
  WF centre and spread   47  (  0.000128,  0.000129,  1.985107 )     1.03181309
  WF centre and spread   48  ( -0.000800,  0.000346,  5.948734 )     1.37608438
  WF centre and spread   49  ( -0.001495,  0.000784,  5.954569 )     1.04063323
  WF centre and spread   50  (  0.000168,  0.000308,  5.954221 )     1.03177077
  WF centre and spread   51  (  2.806848,  2.806629,  5.984543 )     1.44656724
  WF centre and spread   52  (  2.806547,  2.806955,  5.954134 )     1.02718994
  WF centre and spread   53  (  2.806179,  2.807494,  5.954818 )     1.03279432
  WF centre and spread   54  (  2.806916,  2.806670,  1.952840 )     1.44559515
  WF centre and spread   55  (  2.806624,  2.807179,  1.985188 )     1.02726060
  WF centre and spread   56  (  2.806298,  2.807352,  1.984532 )     1.03293428
  Sum of centres and spreads (109.210133,113.494613,135.440743 )   236.29803362

   9600    -0.876E-02     5.3664228819      236.2980336184     881.06  <-- CONV
        O_D=      0.4516044 O_OD=     73.5897036 O_TOT=    236.2980336 <-- SPRD
 Delta: O_D= -0.5972530E-02 O_OD= -0.2789561E-02 O_TOT= -0.8762092E-02 <-- DLTA
 ------------------------------------------------------------------------------
 Cycle:   9800
  WF centre and spread    1  ( -0.000022, -0.000030,  0.000779 )     1.37500564
  WF centre and spread    2  ( -0.000181,  0.000161, -0.000584 )     1.37137808
  WF centre and spread    3  ( -0.000274,  0.000106, -0.000004 )     1.35275105
  WF centre and spread    4  ( -0.000192, -0.000185,  3.970247 )     1.37174658
  WF centre and spread    5  (  0.000024, -0.000024,  3.969084 )     1.37284018
  WF centre and spread    6  ( -0.000325, -0.000261,  3.969668 )     1.35351105
  WF centre and spread    7  (  2.807241,  2.807233,  3.970267 )     1.37344020
  WF centre and spread    8  (  2.806951,  2.807023,  3.969011 )     1.37256714
  WF centre and spread    9  (  2.806900,  2.806479,  3.969659 )     1.35489269
  WF centre and spread   10  (  2.806999,  2.806974,  0.000775 )     1.37589365
  WF centre and spread   11  (  2.806970,  2.807020, -0.000629 )     1.37303829
  WF centre and spread   12  (  2.807209,  2.806420,  0.000009 )     1.35400502
  WF centre and spread   13  ( -1.837624,  0.298733,  0.036008 )    27.56791899
  WF centre and spread   14  (  0.413576,  0.405485,  0.010555 )    32.54067962
  WF centre and spread   15  (  0.016423,  2.358319,  3.970401 )    23.95809699
  WF centre and spread   16  ( -0.783271, -1.625066,  4.062917 )    19.57410775
  WF centre and spread   17  (  2.836297,  2.783659,  3.971876 )    21.11490190
  WF centre and spread   18  (  2.869710,  2.832644,  3.969326 )    13.97588521
  WF centre and spread   19  (  1.762418,  2.449435,  0.331016 )    25.18104507
  WF centre and spread   20  (  2.811823,  2.905970,  0.000730 )    13.18387285
  WF centre and spread   21  (  1.403563,  4.210340,  0.000212 )     1.06589671
  WF centre and spread   22  (  1.385049,  4.239291,  0.000135 )     1.27836683
  WF centre and spread   23  (  1.380273,  4.233234, -0.000070 )     1.27672447
  WF centre and spread   24  (  1.403536,  1.403654,  0.000543 )     1.07511067
  WF centre and spread   25  (  1.392248,  1.386746, -0.000181 )     1.25747381
  WF centre and spread   26  (  1.386782,  1.386157, -0.000035 )     1.25305163
  WF centre and spread   27  (  4.210541,  1.403515,  3.969025 )     1.05642018
  WF centre and spread   28  (  4.228858,  1.380134,  3.969848 )     1.26638252
  WF centre and spread   29  (  4.238807,  1.375880,  3.969670 )     1.25182104
  WF centre and spread   30  (  4.210312,  4.210561,  3.968320 )     1.05272801
  WF centre and spread   31  (  4.235397,  4.236777,  3.969445 )     1.27655822
  WF centre and spread   32  (  4.236494,  4.241834,  3.969725 )     1.27142545
  WF centre and spread   33  (  4.210512,  1.403502,  0.000448 )     1.06863857
  WF centre and spread   34  (  4.228158,  1.382200,  0.000204 )     1.28001615
  WF centre and spread   35  (  4.236963,  1.375633, -0.000013 )     1.27348620
  WF centre and spread   36  (  4.210471,  4.210383,  0.000943 )     1.08265195
  WF centre and spread   37  (  4.224199,  4.224976, -0.000192 )     1.27105010
  WF centre and spread   38  (  4.225288,  4.229056,  0.000059 )     1.25575732
  WF centre and spread   39  (  1.403550,  4.210560,  3.969103 )     1.05643169
  WF centre and spread   40  (  1.392294,  4.232195,  3.969711 )     1.25375944
  WF centre and spread   41  (  1.383361,  4.230252,  3.969531 )     1.26113384
  WF centre and spread   42  (  1.403506,  1.403507,  3.968492 )     1.05084168
  WF centre and spread   43  (  1.384261,  1.377880,  3.969510 )     1.27905308
  WF centre and spread   44  (  1.379798,  1.375570,  3.969685 )     1.26645565
  WF centre and spread   45  ( -0.000654,  0.000374,  1.991072 )     1.37179369
  WF centre and spread   46  ( -0.001226,  0.000650,  1.984771 )     1.04072448
  WF centre and spread   47  (  0.000105,  0.000118,  1.985118 )     1.03135566
  WF centre and spread   48  ( -0.000755,  0.000322,  5.948761 )     1.37537891
  WF centre and spread   49  ( -0.001543,  0.000790,  5.954538 )     1.04142632
  WF centre and spread   50  (  0.000142,  0.000295,  5.954194 )     1.03160205
  WF centre and spread   51  (  2.806827,  2.806634,  5.984568 )     1.44709793
  WF centre and spread   52  (  2.806592,  2.806937,  5.954117 )     1.02760015
  WF centre and spread   53  (  2.806216,  2.807430,  5.954805 )     1.03288163
  WF centre and spread   54  (  2.806886,  2.806672,  1.952870 )     1.44613866
  WF centre and spread   55  (  2.806677,  2.807165,  1.985199 )     1.02730659
  WF centre and spread   56  (  2.806335,  2.807292,  1.984535 )     1.03288791
  Sum of centres and spreads (109.160476,113.458609,135.439775 )   236.18500715

   9800     0.881E-02     6.6181545078      236.1850071496     899.19  <-- CONV
        O_D=      0.4554193 O_OD=     73.4728623 O_TOT=    236.1850071 <-- SPRD
 Delta: O_D=  0.9942965E-02 O_OD= -0.1129627E-02 O_TOT=  0.8813338E-02 <-- DLTA
 ------------------------------------------------------------------------------
 Cycle:  10000
  WF centre and spread    1  ( -0.000011, -0.000031,  0.000768 )     1.37418696
  WF centre and spread    2  ( -0.000169,  0.000153, -0.000577 )     1.37118990
  WF centre and spread    3  ( -0.000269,  0.000103, -0.000004 )     1.35283343
  WF centre and spread    4  ( -0.000179, -0.000184,  3.970268 )     1.37124793
  WF centre and spread    5  (  0.000033, -0.000025,  3.969093 )     1.37263060
  WF centre and spread    6  ( -0.000316, -0.000259,  3.969668 )     1.35357237
  WF centre and spread    7  (  2.807226,  2.807230,  3.970293 )     1.37291007
  WF centre and spread    8  (  2.806942,  2.807022,  3.969016 )     1.37234663
  WF centre and spread    9  (  2.806913,  2.806486,  3.969658 )     1.35492862
  WF centre and spread   10  (  2.806990,  2.806975,  0.000756 )     1.37508871
  WF centre and spread   11  (  2.806957,  2.807023, -0.000619 )     1.37285262
  WF centre and spread   12  (  2.807214,  2.806427,  0.000007 )     1.35406979
  WF centre and spread   13  ( -1.875921,  0.289735,  0.034095 )    27.60784015
  WF centre and spread   14  (  0.409244,  0.417958,  0.026507 )    32.58768821
  WF centre and spread   15  (  0.022249,  2.368337,  3.967107 )    23.91690223
  WF centre and spread   16  ( -0.756960, -1.666068,  4.049677 )    19.66137424
  WF centre and spread   17  (  2.841449,  2.782409,  3.973467 )    21.10298431
  WF centre and spread   18  (  2.865824,  2.831253,  3.969427 )    13.96092412
  WF centre and spread   19  (  1.725527,  2.449240,  0.341630 )    25.30041663
  WF centre and spread   20  (  2.810246,  2.902772,  0.000903 )    13.13225772
  WF centre and spread   21  (  1.403558,  4.210340,  0.000221 )     1.06585401
  WF centre and spread   22  (  1.384950,  4.239471,  0.000137 )     1.27902628
  WF centre and spread   23  (  1.380037,  4.233506, -0.000066 )     1.27716064
  WF centre and spread   24  (  1.403537,  1.403648,  0.000510 )     1.07422515
  WF centre and spread   25  (  1.392126,  1.386488, -0.000188 )     1.25869675
  WF centre and spread   26  (  1.386557,  1.385814, -0.000034 )     1.25389794
  WF centre and spread   27  (  4.210531,  1.403509,  3.969007 )     1.05642594
  WF centre and spread   28  (  4.228899,  1.380095,  3.969844 )     1.26576872
  WF centre and spread   29  (  4.238805,  1.375699,  3.969672 )     1.25156158
  WF centre and spread   30  (  4.210321,  4.210556,  3.968330 )     1.05210653
  WF centre and spread   31  (  4.235308,  4.236770,  3.969450 )     1.27628824
  WF centre and spread   32  (  4.236492,  4.241926,  3.969722 )     1.27105537
  WF centre and spread   33  (  4.210516,  1.403504,  0.000436 )     1.06870526
  WF centre and spread   34  (  4.228204,  1.381989,  0.000202 )     1.28050795
  WF centre and spread   35  (  4.237076,  1.375465, -0.000008 )     1.27390553
  WF centre and spread   36  (  4.210470,  4.210384,  0.000937 )     1.08167586
  WF centre and spread   37  (  4.224339,  4.225208, -0.000178 )     1.27139758
  WF centre and spread   38  (  4.225494,  4.229311,  0.000063 )     1.25601814
  WF centre and spread   39  (  1.403551,  4.210561,  3.969085 )     1.05652073
  WF centre and spread   40  (  1.392188,  4.232287,  3.969712 )     1.25354785
  WF centre and spread   41  (  1.383215,  4.230436,  3.969528 )     1.26040113
  WF centre and spread   42  (  1.403507,  1.403506,  3.968509 )     1.05019361
  WF centre and spread   43  (  1.384345,  1.377737,  3.969502 )     1.27995757
  WF centre and spread   44  (  1.379734,  1.375429,  3.969689 )     1.26654026
  WF centre and spread   45  ( -0.000647,  0.000356,  1.990932 )     1.37145072
  WF centre and spread   46  ( -0.001182,  0.000624,  1.984765 )     1.04055956
  WF centre and spread   47  (  0.000146,  0.000094,  1.985110 )     1.03168758
  WF centre and spread   48  ( -0.000743,  0.000310,  5.948788 )     1.37503842
  WF centre and spread   49  ( -0.001491,  0.000766,  5.954554 )     1.04109658
  WF centre and spread   50  (  0.000191,  0.000267,  5.954211 )     1.03160003
  WF centre and spread   51  (  2.806826,  2.806631,  5.984562 )     1.44777027
  WF centre and spread   52  (  2.806591,  2.806944,  5.954136 )     1.02683849
  WF centre and spread   53  (  2.806190,  2.807395,  5.954822 )     1.03344105
  WF centre and spread   54  (  2.806903,  2.806670,  1.952882 )     1.44655203
  WF centre and spread   55  (  2.806667,  2.807171,  1.985177 )     1.02690073
  WF centre and spread   56  (  2.806302,  2.807256,  1.984528 )     1.03354264
  Sum of centres and spreads (109.112502,113.424678,135.449687 )   236.35616196

  10000    -0.957E-01    18.5248347478      236.3561619651     917.37  <-- CONV
        O_D=      0.7259154 O_OD=     73.3735210 O_TOT=    236.3561620 <-- SPRD
 Delta: O_D= -0.1085396E+00 O_OD=  0.1284435E-01 O_TOT= -0.9569523E-01 <-- DLTA
 ------------------------------------------------------------------------------
 Final State
  WF centre and spread    1  ( -0.000011, -0.000031,  0.000768 )     1.37418696
  WF centre and spread    2  ( -0.000169,  0.000153, -0.000577 )     1.37118990
  WF centre and spread    3  ( -0.000269,  0.000103, -0.000004 )     1.35283343
  WF centre and spread    4  ( -0.000179, -0.000184,  3.970268 )     1.37124793
  WF centre and spread    5  (  0.000033, -0.000025,  3.969093 )     1.37263060
  WF centre and spread    6  ( -0.000316, -0.000259,  3.969668 )     1.35357237
  WF centre and spread    7  (  2.807226,  2.807230,  3.970293 )     1.37291007
  WF centre and spread    8  (  2.806942,  2.807022,  3.969016 )     1.37234663
  WF centre and spread    9  (  2.806913,  2.806486,  3.969658 )     1.35492862
  WF centre and spread   10  (  2.806990,  2.806975,  0.000756 )     1.37508871
  WF centre and spread   11  (  2.806957,  2.807023, -0.000619 )     1.37285262
  WF centre and spread   12  (  2.807214,  2.806427,  0.000007 )     1.35406979
  WF centre and spread   13  ( -1.875921,  0.289735,  0.034095 )    27.60784015
  WF centre and spread   14  (  0.409244,  0.417958,  0.026507 )    32.58768821
  WF centre and spread   15  (  0.022249,  2.368337,  3.967107 )    23.91690223
  WF centre and spread   16  ( -0.756960, -1.666068,  4.049677 )    19.66137424
  WF centre and spread   17  (  2.841449,  2.782409,  3.973467 )    21.10298431
  WF centre and spread   18  (  2.865824,  2.831253,  3.969427 )    13.96092412
  WF centre and spread   19  (  1.725527,  2.449240,  0.341630 )    25.30041663
  WF centre and spread   20  (  2.810246,  2.902772,  0.000903 )    13.13225772
  WF centre and spread   21  (  1.403558,  4.210340,  0.000221 )     1.06585401
  WF centre and spread   22  (  1.384950,  4.239471,  0.000137 )     1.27902628
  WF centre and spread   23  (  1.380037,  4.233506, -0.000066 )     1.27716064
  WF centre and spread   24  (  1.403537,  1.403648,  0.000510 )     1.07422515
  WF centre and spread   25  (  1.392126,  1.386488, -0.000188 )     1.25869675
  WF centre and spread   26  (  1.386557,  1.385814, -0.000034 )     1.25389794
  WF centre and spread   27  (  4.210531,  1.403509,  3.969007 )     1.05642594
  WF centre and spread   28  (  4.228899,  1.380095,  3.969844 )     1.26576872
  WF centre and spread   29  (  4.238805,  1.375699,  3.969672 )     1.25156158
  WF centre and spread   30  (  4.210321,  4.210556,  3.968330 )     1.05210653
  WF centre and spread   31  (  4.235308,  4.236770,  3.969450 )     1.27628824
  WF centre and spread   32  (  4.236492,  4.241926,  3.969722 )     1.27105537
  WF centre and spread   33  (  4.210516,  1.403504,  0.000436 )     1.06870526
  WF centre and spread   34  (  4.228204,  1.381989,  0.000202 )     1.28050795
  WF centre and spread   35  (  4.237076,  1.375465, -0.000008 )     1.27390553
  WF centre and spread   36  (  4.210470,  4.210384,  0.000937 )     1.08167586
  WF centre and spread   37  (  4.224339,  4.225208, -0.000178 )     1.27139758
  WF centre and spread   38  (  4.225494,  4.229311,  0.000063 )     1.25601814
  WF centre and spread   39  (  1.403551,  4.210561,  3.969085 )     1.05652073
  WF centre and spread   40  (  1.392188,  4.232287,  3.969712 )     1.25354785
  WF centre and spread   41  (  1.383215,  4.230436,  3.969528 )     1.26040113
  WF centre and spread   42  (  1.403507,  1.403506,  3.968509 )     1.05019361
  WF centre and spread   43  (  1.384345,  1.377737,  3.969502 )     1.27995757
  WF centre and spread   44  (  1.379734,  1.375429,  3.969689 )     1.26654026
  WF centre and spread   45  ( -0.000647,  0.000356,  1.990932 )     1.37145072
  WF centre and spread   46  ( -0.001182,  0.000624,  1.984765 )     1.04055956
  WF centre and spread   47  (  0.000146,  0.000094,  1.985110 )     1.03168758
  WF centre and spread   48  ( -0.000743,  0.000310,  5.948788 )     1.37503842
  WF centre and spread   49  ( -0.001491,  0.000766,  5.954554 )     1.04109658
  WF centre and spread   50  (  0.000191,  0.000267,  5.954211 )     1.03160003
  WF centre and spread   51  (  2.806826,  2.806631,  5.984562 )     1.44777027
  WF centre and spread   52  (  2.806591,  2.806944,  5.954136 )     1.02683849
  WF centre and spread   53  (  2.806190,  2.807395,  5.954822 )     1.03344105
  WF centre and spread   54  (  2.806903,  2.806670,  1.952882 )     1.44655203
  WF centre and spread   55  (  2.806667,  2.807171,  1.985177 )     1.02690073
  WF centre and spread   56  (  2.806302,  2.807256,  1.984528 )     1.03354264
  Sum of centres and spreads (109.112502,113.424678,135.449687 )   236.35616196

         Spreads (Ang^2)       Omega I      =   162.256725586
        ================       Omega D      =     0.725915359
                               Omega OD     =    73.373521020
    Final Spread (Ang^2)       Omega Total  =   236.356161965
 ------------------------------------------------------------------------------

 Writing checkpoint file smo.chk... done

 *---------------------------------------------------------------------------*
 |                               PLOTTING                                    |
 *---------------------------------------------------------------------------*


 Calculating interpolated band-structure

 Time to calculate interpolated band structure       2.085 (sec)

  
  Omega Invariant:   1-s^2 =   162.256725584 (Ang^2)
                   -2log s =  2157.281599795 (Ang^2)
                    acos^2 =   298.694599959 (Ang^2)

 *===========================================================================*
 |                             TIMING INFORMATION                            |
 *===========================================================================*
 |    Tag                                                Ncalls      Time (s)|
 |---------------------------------------------------------------------------|
 |kmesh: get                                        :         1         0.112|
 |overlap: read                                     :         1         4.670|
 |wann: main                                        :         1       915.687|
 |plot: main                                        :         1         6.171|
 *---------------------------------------------------------------------------*
 All done: wannier90 exiting
