
     Program PWSCF v.7.5 starts on 29Nov2025 at 20:34:50 
        Git branch: develop
        Last git commit: 70e07caa2a5fab3dd9374bc01196f67e923fc5ea
        Last git commit date: Mon Aug 18 10:06:47 2025 +0000
        Last git commit subject: Merge branch 'stressed-by-optional-variables' into

     This program is part of the open-source Quantum ESPRESSO suite
     for quantum simulation of materials; please cite
         "P. Giannozzi et al., J. Phys.:Condens. Matter 21 395502 (2009);
         "P. Giannozzi et al., J. Phys.:Condens. Matter 29 465901 (2017);
         "P. Giannozzi et al., J. Chem. Phys. 152 154105 (2020);
          URL http://www.quantum-espresso.org", 
     in publications or presentations arising from this work. More details at
     http://www.quantum-espresso.org/quote

     Parallel version (MPI), running on   128 processors

     MPI processes distributed on     1 nodes
     929649 MiB available memory on the printing compute node when the environment starts

     Waiting for input...
     Reading input from standard input
Warning: card &CELL ignored
Warning: card &FCP ignored
Warning: card &RISM ignored

     Current dimensions of program PWSCF are:
     Max number of different atomic species (ntypx) = 10
     Max number of k-points (npk) =  40000
     Max angular momentum in pseudopotentials (lmaxx) =  4
     file Sr.pz-spn-kjpaw_psl.1.0.0.UPF: wavefunction(s)  4P renormalized
     file Mo.pz-spn-kjpaw_psl.1.0.0.UPF: wavefunction(s)  4S 4D renormalized
     file O.pz-n-kjpaw_psl.1.0.0.UPF: wavefunction(s)  2S 2P renormalized
     Found identity + ( -0.5000  0.5000 -0.5000) symmetry
     This is a supercell, fractional translations are disabled
     Message from routine setup:
     using ibrav=0 with symmetry is DISCOURAGED, use correct ibrav instead

     K-points division:     npool     =     128
     Subspace diagonalization in iterative solution of the eigenvalue problem:
     a serial algorithm will be used

     Message from routine divide_et_impera:
     suboptimal parallelization: some nodes have no k-points

     G-vector sticks info
     --------------------
     sticks:   dense  smooth     PW     G-vecs:    dense   smooth      PW
     Sum        3577    1789    497               228191    80831   11835

     Using Slab Decomposition



     bravais-lattice index     =            0
     lattice parameter (alat)  =      10.6088  a.u.
     unit-cell volume          =    1688.5722 (a.u.)^3
     number of atoms/cell      =           20
     number of atomic types    =            3
     number of electrons       =       168.00
     number of Kohn-Sham states=          101
     kinetic-energy cutoff     =      50.0000  Ry
     charge density cutoff     =     400.0000  Ry
     scf convergence threshold =      1.0E-09
     mixing beta               =       0.4000
     number of iterations used =            8  plain     mixing
     Exchange-correlation= SLA  PZ   NOGX NOGC
                           (   1   1   0   0   0   0   0)

     celldm(1)=  10.608847  celldm(2)=   0.000000  celldm(3)=   0.000000
     celldm(4)=   0.000000  celldm(5)=   0.000000  celldm(6)=   0.000000

     crystal axes: (cart. coord. in units of alat)
               a(1) = (   1.000000   0.000000   0.000000 )  
               a(2) = (   0.000000   1.000000   0.000000 )  
               a(3) = (   0.000000   0.000000   1.414214 )  

     reciprocal axes: (cart. coord. in units 2 pi/alat)
               b(1) = (  1.000000  0.000000  0.000000 )  
               b(2) = (  0.000000  1.000000  0.000000 )  
               b(3) = (  0.000000  0.000000  0.707107 )  


     PseudoPot. # 1 for Sr read from file:
     ../../../pseudo/Sr.pz-spn-kjpaw_psl.1.0.0.UPF
     MD5 check sum: 14b1f655f5497b386c4f305353cf4fd4
     Pseudo is Projector augmented-wave + core cor, Zval = 10.0
     Generated using 'atomic' code by A. Dal Corso  v.7.3
     Shape of augmentation charge: PSQ
     Using radial grid of 1221 points,  6 beta functions with: 
                l(1) =   0
                l(2) =   0
                l(3) =   1
                l(4) =   1
                l(5) =   2
                l(6) =   2
     Q(r) pseudized with 0 coefficients 


     PseudoPot. # 2 for Mo read from file:
     ../../../pseudo/Mo.pz-spn-kjpaw_psl.1.0.0.UPF
     MD5 check sum: 2e12aff744a4785a34e7548d4bec1d21
     Pseudo is Projector augmented-wave + core cor, Zval = 14.0
     Generated using 'atomic' code by A. Dal Corso  v.7.3
     Shape of augmentation charge: PSQ
     Using radial grid of 1229 points,  6 beta functions with: 
                l(1) =   0
                l(2) =   0
                l(3) =   1
                l(4) =   1
                l(5) =   2
                l(6) =   2
     Q(r) pseudized with 0 coefficients 


     PseudoPot. # 3 for O  read from file:
     ../../../pseudo/O.pz-n-kjpaw_psl.1.0.0.UPF
     MD5 check sum: 71a951e35f67dc87891058fc5642ed8f
     Pseudo is Projector augmented-wave + core cor, Zval =  6.0
     Generated using 'atomic' code by A. Dal Corso  v.7.3
     Shape of augmentation charge: PSQ
     Using radial grid of 1095 points,  4 beta functions with: 
                l(1) =   0
                l(2) =   0
                l(3) =   1
                l(4) =   1
     Q(r) pseudized with 0 coefficients 


     atomic species   valence    mass     pseudopotential
     Sr               10.00    87.62000     Sr( 1.00)
     Mo               14.00    95.95000     Mo( 1.00)
     O                 6.00    15.99900     O ( 1.00)

      4 Sym. Ops., with inversion, found


                                    s                        frac. trans.

      isym =  1     identity                                     

 cryst.   s( 1) = (     1          0          0      )
                  (     0          1          0      )
                  (     0          0          1      )

 cart.    s( 1) = (  1.0000000  0.0000000  0.0000000 )
                  (  0.0000000  1.0000000  0.0000000 )
                  (  0.0000000  0.0000000  1.0000000 )


      isym =  2     180 deg rotation - cart. axis [1,0,0]        

 cryst.   s( 2) = (     1          0          0      )
                  (     0         -1          0      )
                  (     0          0         -1      )

 cart.    s( 2) = (  1.0000000  0.0000000  0.0000000 )
                  (  0.0000000 -1.0000000  0.0000000 )
                  (  0.0000000  0.0000000 -1.0000000 )


      isym =  3     inversion                                    

 cryst.   s( 3) = (    -1          0          0      )
                  (     0         -1          0      )
                  (     0          0         -1      )

 cart.    s( 3) = ( -1.0000000  0.0000000  0.0000000 )
                  (  0.0000000 -1.0000000  0.0000000 )
                  (  0.0000000  0.0000000 -1.0000000 )


      isym =  4     inv. 180 deg rotation - cart. axis [1,0,0]   

 cryst.   s( 4) = (    -1          0          0      )
                  (     0          1          0      )
                  (     0          0          1      )

 cart.    s( 4) = ( -1.0000000  0.0000000  0.0000000 )
                  (  0.0000000  1.0000000  0.0000000 )
                  (  0.0000000  0.0000000  1.0000000 )


   Cartesian axes

     site n.     atom                  positions (alat units)
         1        Sr     tau(   1) = (   0.0000000   0.5000000   0.3535535  )
         2        Sr     tau(   2) = (   0.0000000   0.5000000   1.0606604  )
         3        Sr     tau(   3) = (   0.5000000   0.0000000   1.0606604  )
         4        Sr     tau(   4) = (   0.5000000   0.0000000   0.3535535  )
         5        Mo     tau(   5) = (   0.0000000   0.0000000   0.0000000  )
         6        Mo     tau(   6) = (   0.0000000   0.0000000   0.7071069  )
         7        Mo     tau(   7) = (   0.5000000   0.5000000   0.7071069  )
         8        Mo     tau(   8) = (   0.5000000   0.5000000   0.0000000  )
         9        O      tau(   9) = (   0.2500000   0.7500000   0.0125950  )
        10        O      tau(  10) = (   0.2500000   0.2500000  -0.0125950  )
        11        O      tau(  11) = (   0.7500000   0.2500000   0.7197019  )
        12        O      tau(  12) = (   0.7500000   0.7500000   0.6945119  )
        13        O      tau(  13) = (   0.7500000   0.2500000  -0.0125950  )
        14        O      tau(  14) = (   0.7500000   0.7500000   0.0125950  )
        15        O      tau(  15) = (   0.2500000   0.7500000   0.6945119  )
        16        O      tau(  16) = (   0.2500000   0.2500000   0.7197019  )
        17        O      tau(  17) = (   0.0000000   0.0178120   0.3535535  )
        18        O      tau(  18) = (   0.0000000  -0.0178120   1.0606604  )
        19        O      tau(  19) = (   0.5000000   0.5178120   1.0606604  )
        20        O      tau(  20) = (   0.5000000   0.4821880   0.3535535  )

   Crystallographic axes

     site n.     atom                  positions (cryst. coord.)
         1        Sr     tau(   1) = (  0.0000000  0.5000000  0.2500000  )
         2        Sr     tau(   2) = (  0.0000000  0.5000000  0.7500000  )
         3        Sr     tau(   3) = (  0.5000000  0.0000000  0.7500000  )
         4        Sr     tau(   4) = (  0.5000000  0.0000000  0.2500000  )
         5        Mo     tau(   5) = (  0.0000000  0.0000000  0.0000000  )
         6        Mo     tau(   6) = (  0.0000000  0.0000000  0.5000000  )
         7        Mo     tau(   7) = (  0.5000000  0.5000000  0.5000000  )
         8        Mo     tau(   8) = (  0.5000000  0.5000000  0.0000000  )
         9        O      tau(   9) = (  0.2500000  0.7500000  0.0089060  )
        10        O      tau(  10) = (  0.2500000  0.2500000 -0.0089060  )
        11        O      tau(  11) = (  0.7500000  0.2500000  0.5089060  )
        12        O      tau(  12) = (  0.7500000  0.7500000  0.4910940  )
        13        O      tau(  13) = (  0.7500000  0.2500000 -0.0089060  )
        14        O      tau(  14) = (  0.7500000  0.7500000  0.0089060  )
        15        O      tau(  15) = (  0.2500000  0.7500000  0.4910940  )
        16        O      tau(  16) = (  0.2500000  0.2500000  0.5089060  )
        17        O      tau(  17) = (  0.0000000  0.0178120  0.2500000  )
        18        O      tau(  18) = (  0.0000000 -0.0178120  0.7500000  )
        19        O      tau(  19) = (  0.5000000  0.5178120  0.7500000  )
        20        O      tau(  20) = (  0.5000000  0.4821880  0.2500000  )

     number of k points=    39  Fermi-Dirac smearing, width (Ry)=  0.0015
                       cart. coord. in units 2pi/alat
        k(    1) = (   0.0000000   0.0000000   0.0000000), wk =   0.0160000
        k(    2) = (   0.0000000   0.0000000   0.1414213), wk =   0.0320000
        k(    3) = (   0.0000000   0.0000000   0.2828427), wk =   0.0320000
        k(    4) = (   0.0000000   0.2000000   0.0000000), wk =   0.0320000
        k(    5) = (   0.0000000   0.2000000   0.1414213), wk =   0.0320000
        k(    6) = (   0.0000000   0.2000000   0.2828427), wk =   0.0320000
        k(    7) = (   0.0000000   0.4000000   0.0000000), wk =   0.0320000
        k(    8) = (   0.0000000   0.4000000   0.1414213), wk =   0.0320000
        k(    9) = (   0.0000000   0.4000000   0.2828427), wk =   0.0320000
        k(   10) = (   0.2000000   0.2000000   0.0000000), wk =   0.0640000
        k(   11) = (   0.2000000   0.2000000   0.1414213), wk =   0.0640000
        k(   12) = (   0.2000000   0.2000000   0.2828427), wk =   0.0640000
        k(   13) = (   0.2000000   0.4000000   0.0000000), wk =   0.0640000
        k(   14) = (   0.2000000   0.4000000   0.1414213), wk =   0.0640000
        k(   15) = (   0.2000000   0.4000000   0.2828427), wk =   0.0640000
        k(   16) = (   0.4000000   0.4000000   0.0000000), wk =   0.0640000
        k(   17) = (   0.4000000   0.4000000   0.1414213), wk =   0.0640000
        k(   18) = (   0.4000000   0.4000000   0.2828427), wk =   0.0640000
        k(   19) = (   0.2000000   0.0000000   0.0000000), wk =   0.0320000
        k(   20) = (   0.2000000   0.0000000  -0.1414213), wk =   0.0640000
        k(   21) = (   0.0000000   0.2000000  -0.1414213), wk =   0.0320000
        k(   22) = (   0.2000000   0.0000000  -0.2828427), wk =   0.0640000
        k(   23) = (   0.0000000   0.2000000  -0.2828427), wk =   0.0320000
        k(   24) = (   0.4000000   0.0000000   0.0000000), wk =   0.0320000
        k(   25) = (   0.4000000   0.0000000  -0.1414213), wk =   0.0640000
        k(   26) = (   0.0000000   0.4000000  -0.1414213), wk =   0.0320000
        k(   27) = (   0.4000000   0.0000000  -0.2828427), wk =   0.0640000
        k(   28) = (   0.0000000   0.4000000  -0.2828427), wk =   0.0320000
        k(   29) = (   0.2000000   0.2000000  -0.1414213), wk =   0.0640000
        k(   30) = (   0.2000000   0.2000000  -0.2828427), wk =   0.0640000
        k(   31) = (   0.4000000   0.2000000   0.0000000), wk =   0.0640000
        k(   32) = (   0.4000000   0.2000000  -0.1414213), wk =   0.0640000
        k(   33) = (  -0.4000000  -0.2000000  -0.1414213), wk =   0.0640000
        k(   34) = (  -0.2000000   0.4000000  -0.1414213), wk =   0.0640000
        k(   35) = (   0.4000000   0.2000000  -0.2828427), wk =   0.0640000
        k(   36) = (  -0.4000000  -0.2000000  -0.2828427), wk =   0.0640000
        k(   37) = (  -0.2000000   0.4000000  -0.2828427), wk =   0.0640000
        k(   38) = (   0.4000000   0.4000000  -0.1414213), wk =   0.0640000
        k(   39) = (   0.4000000   0.4000000  -0.2828427), wk =   0.0640000

                       cryst. coord.
        k(    1) = (   0.0000000   0.0000000   0.0000000), wk =   0.0160000
        k(    2) = (   0.0000000   0.0000000   0.2000000), wk =   0.0320000
        k(    3) = (   0.0000000   0.0000000   0.4000000), wk =   0.0320000
        k(    4) = (   0.0000000   0.2000000   0.0000000), wk =   0.0320000
        k(    5) = (   0.0000000   0.2000000   0.2000000), wk =   0.0320000
        k(    6) = (   0.0000000   0.2000000   0.4000000), wk =   0.0320000
        k(    7) = (   0.0000000   0.4000000   0.0000000), wk =   0.0320000
        k(    8) = (   0.0000000   0.4000000   0.2000000), wk =   0.0320000
        k(    9) = (   0.0000000   0.4000000   0.4000000), wk =   0.0320000
        k(   10) = (   0.2000000   0.2000000   0.0000000), wk =   0.0640000
        k(   11) = (   0.2000000   0.2000000   0.2000000), wk =   0.0640000
        k(   12) = (   0.2000000   0.2000000   0.4000000), wk =   0.0640000
        k(   13) = (   0.2000000   0.4000000   0.0000000), wk =   0.0640000
        k(   14) = (   0.2000000   0.4000000   0.2000000), wk =   0.0640000
        k(   15) = (   0.2000000   0.4000000   0.4000000), wk =   0.0640000
        k(   16) = (   0.4000000   0.4000000   0.0000000), wk =   0.0640000
        k(   17) = (   0.4000000   0.4000000   0.2000000), wk =   0.0640000
        k(   18) = (   0.4000000   0.4000000   0.4000000), wk =   0.0640000
        k(   19) = (   0.2000000   0.0000000   0.0000000), wk =   0.0320000
        k(   20) = (   0.2000000   0.0000000  -0.2000000), wk =   0.0640000
        k(   21) = (   0.0000000   0.2000000  -0.2000000), wk =   0.0320000
        k(   22) = (   0.2000000   0.0000000  -0.4000000), wk =   0.0640000
        k(   23) = (   0.0000000   0.2000000  -0.4000000), wk =   0.0320000
        k(   24) = (   0.4000000   0.0000000   0.0000000), wk =   0.0320000
        k(   25) = (   0.4000000   0.0000000  -0.2000000), wk =   0.0640000
        k(   26) = (   0.0000000   0.4000000  -0.2000000), wk =   0.0320000
        k(   27) = (   0.4000000   0.0000000  -0.4000000), wk =   0.0640000
        k(   28) = (   0.0000000   0.4000000  -0.4000000), wk =   0.0320000
        k(   29) = (   0.2000000   0.2000000  -0.2000000), wk =   0.0640000
        k(   30) = (   0.2000000   0.2000000  -0.4000000), wk =   0.0640000
        k(   31) = (   0.4000000   0.2000000   0.0000000), wk =   0.0640000
        k(   32) = (   0.4000000   0.2000000  -0.2000000), wk =   0.0640000
        k(   33) = (  -0.4000000  -0.2000000  -0.2000000), wk =   0.0640000
        k(   34) = (  -0.2000000   0.4000000  -0.2000000), wk =   0.0640000
        k(   35) = (   0.4000000   0.2000000  -0.4000000), wk =   0.0640000
        k(   36) = (  -0.4000000  -0.2000000  -0.4000000), wk =   0.0640000
        k(   37) = (  -0.2000000   0.4000000  -0.4000000), wk =   0.0640000
        k(   38) = (   0.4000000   0.4000000  -0.2000000), wk =   0.0640000
        k(   39) = (   0.4000000   0.4000000  -0.4000000), wk =   0.0640000

     Dense  grid:   228191 G-vectors     FFT dimensions: (  72,  72,  96)

     Smooth grid:    80831 G-vectors     FFT dimensions: (  48,  48,  72)

     Dynamical RAM for                 wfc:      15.54 MB

     Dynamical RAM for     wfc (w. buffer):      15.54 MB

     Dynamical RAM for           str. fact:      10.45 MB

     Dynamical RAM for           local pot:       0.00 MB

     Dynamical RAM for          nlocal pot:      36.92 MB

     Dynamical RAM for                qrad:       4.82 MB

     Dynamical RAM for          rho,v,vnew:      21.84 MB

     Dynamical RAM for               rhoin:       7.28 MB

     Dynamical RAM for            rho*nmix:      55.71 MB

     Dynamical RAM for           G-vectors:      13.67 MB

     Dynamical RAM for          h,s,v(r/c):       1.87 MB

     Dynamical RAM for          <psi|beta>:       0.37 MB

     Dynamical RAM for                 psi:      31.07 MB

     Dynamical RAM for                hpsi:      31.07 MB

     Dynamical RAM for                spsi:      31.07 MB

     Dynamical RAM for      wfcinit/wfcrot:      31.31 MB

     Dynamical RAM for           addusdens:       8.84 MB

     Estimated static dynamical RAM per process >     143.42 MB

     Estimated max dynamical RAM per process >     294.58 MB

     Estimated total dynamical RAM >      29.91 GB

     Check: negative core charge=   -0.000002

     Initial potential from superposition of free atoms

     starting charge     167.9716, renormalised to     168.0000
     Starting wfcs are  120 randomized atomic wfcs
     Checking if some PAW data can be deallocated... 
       PAW data deallocated on  100 nodes for type:  1
       PAW data deallocated on  100 nodes for type:  2
       PAW data deallocated on   56 nodes for type:  3

     total cpu time spent up to now is        4.3 secs

     per-process dynamical memory:   215.5 Mb

     Self-consistent Calculation

     iteration #  1     ecut=    50.00 Ry     beta= 0.40
     Davidson diagonalization with overlap

---- Real-time Memory Report at c_bands before calling an iterative solver
           263 MiB given to the printing process from OS
           217 MiB allocation reported by mallinfo(arena+hblkhd)
        915903 MiB available memory on the node where the printing process lives
------------------
     ethr =  1.00E-02,  avg # of iterations =  2.2

     total cpu time spent up to now is        6.9 secs

     total energy              =   -2921.42041444 Ry
     estimated scf accuracy    <       5.74113073 Ry

     iteration #  2     ecut=    50.00 Ry     beta= 0.40
     Davidson diagonalization with overlap

---- Real-time Memory Report at c_bands before calling an iterative solver
           330 MiB given to the printing process from OS
           250 MiB allocation reported by mallinfo(arena+hblkhd)
        914353 MiB available memory on the node where the printing process lives
------------------
     ethr =  3.42E-03,  avg # of iterations =  4.2

     total cpu time spent up to now is       10.0 secs

     total energy              =   -2923.43709299 Ry
     estimated scf accuracy    <       1.57801707 Ry

     iteration #  3     ecut=    50.00 Ry     beta= 0.40
     Davidson diagonalization with overlap

---- Real-time Memory Report at c_bands before calling an iterative solver
           352 MiB given to the printing process from OS
           273 MiB allocation reported by mallinfo(arena+hblkhd)
        911651 MiB available memory on the node where the printing process lives
------------------
     ethr =  9.39E-04,  avg # of iterations =  5.2

     total cpu time spent up to now is       13.4 secs

     total energy              =   -2923.70378725 Ry
     estimated scf accuracy    <       0.60730711 Ry

     iteration #  4     ecut=    50.00 Ry     beta= 0.40
     Davidson diagonalization with overlap

---- Real-time Memory Report at c_bands before calling an iterative solver
           358 MiB given to the printing process from OS
           278 MiB allocation reported by mallinfo(arena+hblkhd)
        911889 MiB available memory on the node where the printing process lives
------------------
     ethr =  3.61E-04,  avg # of iterations = 13.3

     total cpu time spent up to now is       17.4 secs

     total energy              =   -2923.76079041 Ry
     estimated scf accuracy    <       1.28959795 Ry

     iteration #  5     ecut=    50.00 Ry     beta= 0.40
     Davidson diagonalization with overlap

---- Real-time Memory Report at c_bands before calling an iterative solver
           361 MiB given to the printing process from OS
           281 MiB allocation reported by mallinfo(arena+hblkhd)
        912181 MiB available memory on the node where the printing process lives
------------------
     ethr =  3.61E-04,  avg # of iterations =  1.8

     total cpu time spent up to now is       20.0 secs

     total energy              =   -2923.81253335 Ry
     estimated scf accuracy    <       0.06935829 Ry

     iteration #  6     ecut=    50.00 Ry     beta= 0.40
     Davidson diagonalization with overlap

---- Real-time Memory Report at c_bands before calling an iterative solver
           363 MiB given to the printing process from OS
           283 MiB allocation reported by mallinfo(arena+hblkhd)
        912347 MiB available memory on the node where the printing process lives
------------------
     ethr =  4.13E-05,  avg # of iterations = 13.6

     total cpu time spent up to now is       24.6 secs

     total energy              =   -2923.81385671 Ry
     estimated scf accuracy    <       0.23706276 Ry

     iteration #  7     ecut=    50.00 Ry     beta= 0.40
     Davidson diagonalization with overlap

---- Real-time Memory Report at c_bands before calling an iterative solver
           366 MiB given to the printing process from OS
           286 MiB allocation reported by mallinfo(arena+hblkhd)
        912588 MiB available memory on the node where the printing process lives
------------------
     ethr =  4.13E-05,  avg # of iterations =  2.2

     total cpu time spent up to now is       27.3 secs

     total energy              =   -2923.82545670 Ry
     estimated scf accuracy    <       0.08535433 Ry

     iteration #  8     ecut=    50.00 Ry     beta= 0.40
     Davidson diagonalization with overlap

---- Real-time Memory Report at c_bands before calling an iterative solver
           368 MiB given to the printing process from OS
           288 MiB allocation reported by mallinfo(arena+hblkhd)
        912799 MiB available memory on the node where the printing process lives
------------------
     ethr =  4.13E-05,  avg # of iterations =  1.0

     total cpu time spent up to now is       29.6 secs

     total energy              =   -2923.82578490 Ry
     estimated scf accuracy    <       0.04301022 Ry

     iteration #  9     ecut=    50.00 Ry     beta= 0.40
     Davidson diagonalization with overlap

---- Real-time Memory Report at c_bands before calling an iterative solver
           371 MiB given to the printing process from OS
           291 MiB allocation reported by mallinfo(arena+hblkhd)
        912960 MiB available memory on the node where the printing process lives
------------------
     ethr =  2.56E-05,  avg # of iterations =  2.5

     total cpu time spent up to now is       32.5 secs

     total energy              =   -2923.82728653 Ry
     estimated scf accuracy    <       0.00849664 Ry

     iteration # 10     ecut=    50.00 Ry     beta= 0.40
     Davidson diagonalization with overlap

---- Real-time Memory Report at c_bands before calling an iterative solver
           373 MiB given to the printing process from OS
           293 MiB allocation reported by mallinfo(arena+hblkhd)
        913199 MiB available memory on the node where the printing process lives
------------------
     ethr =  5.06E-06,  avg # of iterations =  9.5

     total cpu time spent up to now is       36.6 secs

     total energy              =   -2923.82676602 Ry
     estimated scf accuracy    <       0.00137067 Ry

     iteration # 11     ecut=    50.00 Ry     beta= 0.40
     Davidson diagonalization with overlap

---- Real-time Memory Report at c_bands before calling an iterative solver
           376 MiB given to the printing process from OS
           296 MiB allocation reported by mallinfo(arena+hblkhd)
        913436 MiB available memory on the node where the printing process lives
------------------
     ethr =  8.16E-07,  avg # of iterations = 12.2

     total cpu time spent up to now is       41.8 secs

     total energy              =   -2923.82732837 Ry
     estimated scf accuracy    <       0.00082741 Ry

     iteration # 12     ecut=    50.00 Ry     beta= 0.40
     Davidson diagonalization with overlap

---- Real-time Memory Report at c_bands before calling an iterative solver
           376 MiB given to the printing process from OS
           296 MiB allocation reported by mallinfo(arena+hblkhd)
        913760 MiB available memory on the node where the printing process lives
------------------
     ethr =  4.93E-07,  avg # of iterations =  2.3

     total cpu time spent up to now is       44.7 secs

     total energy              =   -2923.82736385 Ry
     estimated scf accuracy    <       0.00033043 Ry

     iteration # 13     ecut=    50.00 Ry     beta= 0.40
     Davidson diagonalization with overlap

---- Real-time Memory Report at c_bands before calling an iterative solver
           376 MiB given to the printing process from OS
           296 MiB allocation reported by mallinfo(arena+hblkhd)
        913937 MiB available memory on the node where the printing process lives
------------------
     ethr =  1.97E-07,  avg # of iterations =  4.1

     total cpu time spent up to now is       47.8 secs

     total energy              =   -2923.82743402 Ry
     estimated scf accuracy    <       0.00003027 Ry

     iteration # 14     ecut=    50.00 Ry     beta= 0.40
     Davidson diagonalization with overlap

---- Real-time Memory Report at c_bands before calling an iterative solver
           376 MiB given to the printing process from OS
           296 MiB allocation reported by mallinfo(arena+hblkhd)
        914112 MiB available memory on the node where the printing process lives
------------------
     ethr =  1.80E-08,  avg # of iterations =  5.4

     total cpu time spent up to now is       51.2 secs

     total energy              =   -2923.82743621 Ry
     estimated scf accuracy    <       0.00001428 Ry

     iteration # 15     ecut=    50.00 Ry     beta= 0.40
     Davidson diagonalization with overlap

---- Real-time Memory Report at c_bands before calling an iterative solver
           376 MiB given to the printing process from OS
           296 MiB allocation reported by mallinfo(arena+hblkhd)
        914302 MiB available memory on the node where the printing process lives
------------------
     ethr =  8.50E-09,  avg # of iterations =  4.1

     total cpu time spent up to now is       54.4 secs

     total energy              =   -2923.82743900 Ry
     estimated scf accuracy    <       0.00000048 Ry

     iteration # 16     ecut=    50.00 Ry     beta= 0.40
     Davidson diagonalization with overlap

---- Real-time Memory Report at c_bands before calling an iterative solver
           376 MiB given to the printing process from OS
           296 MiB allocation reported by mallinfo(arena+hblkhd)
        914470 MiB available memory on the node where the printing process lives
------------------
     ethr =  2.89E-10,  avg # of iterations =  6.9

     total cpu time spent up to now is       59.6 secs

     total energy              =   -2923.82743975 Ry
     estimated scf accuracy    <       0.00000128 Ry

     iteration # 17     ecut=    50.00 Ry     beta= 0.40
     Davidson diagonalization with overlap

---- Real-time Memory Report at c_bands before calling an iterative solver
           376 MiB given to the printing process from OS
           296 MiB allocation reported by mallinfo(arena+hblkhd)
        914747 MiB available memory on the node where the printing process lives
------------------
     ethr =  2.89E-10,  avg # of iterations =  2.3

     total cpu time spent up to now is       62.6 secs

     total energy              =   -2923.82743975 Ry
     estimated scf accuracy    <       0.00000048 Ry

     iteration # 18     ecut=    50.00 Ry     beta= 0.40
     Davidson diagonalization with overlap

---- Real-time Memory Report at c_bands before calling an iterative solver
           376 MiB given to the printing process from OS
           296 MiB allocation reported by mallinfo(arena+hblkhd)
        914896 MiB available memory on the node where the printing process lives
------------------
     ethr =  2.86E-10,  avg # of iterations =  2.0

     total cpu time spent up to now is       65.2 secs

     total energy              =   -2923.82743963 Ry
     estimated scf accuracy    <       0.00000030 Ry

     iteration # 19     ecut=    50.00 Ry     beta= 0.40
     Davidson diagonalization with overlap

---- Real-time Memory Report at c_bands before calling an iterative solver
           376 MiB given to the printing process from OS
           296 MiB allocation reported by mallinfo(arena+hblkhd)
        915078 MiB available memory on the node where the printing process lives
------------------
     ethr =  1.80E-10,  avg # of iterations =  4.3

     total cpu time spent up to now is       68.6 secs

     total energy              =   -2923.82743973 Ry
     estimated scf accuracy    <       0.00000007 Ry

     iteration # 20     ecut=    50.00 Ry     beta= 0.40
     Davidson diagonalization with overlap

---- Real-time Memory Report at c_bands before calling an iterative solver
           376 MiB given to the printing process from OS
           296 MiB allocation reported by mallinfo(arena+hblkhd)
        915227 MiB available memory on the node where the printing process lives
------------------
     ethr =  3.87E-11,  avg # of iterations =  2.5

     total cpu time spent up to now is       71.4 secs

     total energy              =   -2923.82743973 Ry
     estimated scf accuracy    <       0.00000001 Ry

     iteration # 21     ecut=    50.00 Ry     beta= 0.40
     Davidson diagonalization with overlap

---- Real-time Memory Report at c_bands before calling an iterative solver
           376 MiB given to the printing process from OS
           296 MiB allocation reported by mallinfo(arena+hblkhd)
        915336 MiB available memory on the node where the printing process lives
------------------
     ethr =  6.22E-12,  avg # of iterations =  5.4

     total cpu time spent up to now is       75.1 secs

     total energy              =   -2923.82743974 Ry
     estimated scf accuracy    <          1.1E-09 Ry

     iteration # 22     ecut=    50.00 Ry     beta= 0.40
     Davidson diagonalization with overlap

---- Real-time Memory Report at c_bands before calling an iterative solver
           376 MiB given to the printing process from OS
           296 MiB allocation reported by mallinfo(arena+hblkhd)
        915476 MiB available memory on the node where the printing process lives
------------------
     ethr =  6.75E-13,  avg # of iterations =  5.3

     total cpu time spent up to now is       78.5 secs

     End of self-consistent calculation

          k = 0.0000 0.0000 0.0000 ( 10085 PWs)   bands (ev):

   -48.9293 -48.9286 -48.9265 -48.9255 -23.2628 -23.2444 -23.2418 -23.2396
   -23.2378 -23.2356 -23.1708 -23.1644 -23.1638 -23.1617 -23.1602 -23.1584
   -22.1198 -22.0877 -22.0840 -22.0685  -6.9724  -6.7325  -6.2652  -6.0632
    -6.0520  -6.0081  -5.7749  -5.7596  -5.3144  -5.2973  -5.2952  -5.2819
    -4.3955  -4.3859  -4.3684  -4.1435  -4.1295  -4.1293  -4.1069  -4.1003
    -4.0544  -3.7474  -3.7327  -3.6394   5.1616   5.1794   5.1820   5.2785
     5.3629   5.4139   5.6047   6.2408   6.2411   6.2424   7.1788   7.1802
     7.6306   7.6319   7.7376   7.7448   7.7851   7.7882   7.7920   7.8459
     8.3186   8.7328   8.7409   8.7585   9.1026   9.1121   9.1191   9.4686
     9.4741   9.7565   9.7566   9.7632  10.1864  10.2184  10.2311  10.2453
    11.6632  11.6777  11.6781  11.8659  14.3086  14.3558  14.3567  14.3885
    15.1631  15.2230  15.3269  15.4501  15.5096  15.5850  15.6644  15.6867
    15.7242  15.9024  16.6219  17.0864  17.5070

     occupation numbers 
     1.0000   1.0000   1.0000   1.0000   1.0000   1.0000   1.0000   1.0000
     1.0000   1.0000   1.0000   1.0000   1.0000   1.0000   1.0000   1.0000
     1.0000   1.0000   1.0000   1.0000   1.0000   1.0000   1.0000   1.0000
     1.0000   1.0000   1.0000   1.0000   1.0000   1.0000   1.0000   1.0000
     1.0000   1.0000   1.0000   1.0000   1.0000   1.0000   1.0000   1.0000
     1.0000   1.0000   1.0000   1.0000   1.0000   1.0000   1.0000   1.0000
     1.0000   1.0000   1.0000   1.0000   1.0000   1.0000   1.0000   1.0000
     1.0000   1.0000   1.0000   1.0000   1.0000   1.0000   1.0000   1.0000
     1.0000   1.0000   1.0000   1.0000   1.0000   1.0000   1.0000   1.0000
     1.0000   1.0000   1.0000   1.0000   1.0000   1.0000   1.0000   1.0000
     1.0000   1.0000   1.0000   1.0000   0.0000   0.0000   0.0000   0.0000
     0.0000   0.0000   0.0000   0.0000   0.0000   0.0000   0.0000   0.0000
     0.0000   0.0000   0.0000   0.0000   0.0000

          k = 0.0000 0.0000 0.1414 ( 10050 PWs)   bands (ev):

   -48.9293 -48.9283 -48.9266 -48.9253 -23.2541 -23.2414 -23.2392 -23.2381
   -23.2367 -23.2358 -23.1799 -23.1720 -23.1635 -23.1614 -23.1606 -23.1586
   -22.1166 -22.0906 -22.0826 -22.0699  -6.9406  -6.7321  -6.1825  -6.0482
    -6.0356  -6.0132  -5.7478  -5.7262  -5.4070  -5.3997  -5.3632  -5.3514
    -4.3645  -4.3009  -4.2849  -4.1401  -4.1274  -4.1104  -4.1034  -4.0887
    -4.0748  -3.7956  -3.7811  -3.6801   5.1633   5.1777   5.3050   5.3679
     5.4927   5.5293   5.7499   6.1627   6.2988   6.2990   7.0238   7.0263
     7.5832   7.6192   7.6251   7.7684   7.7717   7.8574   7.8625   7.9449
     8.3342   8.3927   8.9245   8.9364   8.9408   8.9575   9.0254   9.3993
     9.4815   9.4885   9.6836   9.6911  10.1129  10.1222  10.1933  10.2450
    11.6939  11.8463  11.9972  12.0090  14.0882  14.1222  14.4248  14.4582
    15.1893  15.2105  15.2287  15.4233  15.5093  15.5414  15.8297  15.8917
    15.9017  16.1647  16.9899  17.1474  17.2879

     occupation numbers 
     1.0000   1.0000   1.0000   1.0000   1.0000   1.0000   1.0000   1.0000
     1.0000   1.0000   1.0000   1.0000   1.0000   1.0000   1.0000   1.0000
     1.0000   1.0000   1.0000   1.0000   1.0000   1.0000   1.0000   1.0000
     1.0000   1.0000   1.0000   1.0000   1.0000   1.0000   1.0000   1.0000
     1.0000   1.0000   1.0000   1.0000   1.0000   1.0000   1.0000   1.0000
     1.0000   1.0000   1.0000   1.0000   1.0000   1.0000   1.0000   1.0000
     1.0000   1.0000   1.0000   1.0000   1.0000   1.0000   1.0000   1.0000
     1.0000   1.0000   1.0000   1.0000   1.0000   1.0000   1.0000   1.0000
     1.0000   1.0000   1.0000   1.0000   1.0000   1.0000   1.0000   1.0000
     1.0000   1.0000   1.0000   1.0000   1.0000   1.0000   1.0000   1.0000
     1.0000   1.0000   1.0000   1.0000   0.0000   0.0000   0.0000   0.0000
     0.0000   0.0000   0.0000   0.0000   0.0000   0.0000   0.0000   0.0000
     0.0000   0.0000   0.0000   0.0000   0.0000

          k = 0.0000 0.0000 0.2828 ( 10046 PWs)   bands (ev):

   -48.9291 -48.9285 -48.9263 -48.9255 -23.2405 -23.2391 -23.2382 -23.2369
   -23.2315 -23.2167 -23.2032 -23.1921 -23.1627 -23.1615 -23.1605 -23.1593
   -22.1084 -22.0984 -22.0787 -22.0738  -6.8589  -6.7707  -6.0382  -6.0250
    -5.9575  -5.9077  -5.7201  -5.6597  -5.6323  -5.5778  -5.4970  -5.4948
    -4.2820  -4.1768  -4.1310  -4.1208  -4.1196  -4.1169  -4.1115  -4.1024
    -3.9415  -3.9294  -3.9152  -3.7917   5.1678   5.1733   5.3789   5.3793
     5.6992   5.9549   6.1869   6.4032   6.4672   6.4680   6.7296   6.7340
     6.9930   7.3796   7.6585   7.6693   7.7177   7.7190   8.1377   8.1423
     8.2415   8.5278   8.5344   8.5757   8.7466   8.8139   9.3752   9.3851
     9.5223   9.5308   9.5895   9.5984   9.8087   9.8169  10.2112  10.2321
    11.7382  11.7966  12.7201  12.7312  13.4954  13.5130  14.6235  14.6592
    14.9174  14.9552  15.2617  15.3519  15.5094  15.5147  16.2361  16.3305
    16.5134  16.7828  16.8804  17.0671  17.2473

     occupation numbers 
     1.0000   1.0000   1.0000   1.0000   1.0000   1.0000   1.0000   1.0000
     1.0000   1.0000   1.0000   1.0000   1.0000   1.0000   1.0000   1.0000
     1.0000   1.0000   1.0000   1.0000   1.0000   1.0000   1.0000   1.0000
     1.0000   1.0000   1.0000   1.0000   1.0000   1.0000   1.0000   1.0000
     1.0000   1.0000   1.0000   1.0000   1.0000   1.0000   1.0000   1.0000
     1.0000   1.0000   1.0000   1.0000   1.0000   1.0000   1.0000   1.0000
     1.0000   1.0000   1.0000   1.0000   1.0000   1.0000   1.0000   1.0000
     1.0000   1.0000   1.0000   1.0000   1.0000   1.0000   1.0000   1.0000
     1.0000   1.0000   1.0000   1.0000   1.0000   1.0000   1.0000   1.0000
     1.0000   1.0000   1.0000   1.0000   1.0000   1.0000   1.0000   1.0000
     1.0000   1.0000   1.0000   1.0000   0.9971   0.9932   0.0000   0.0000
     0.0000   0.0000   0.0000   0.0000   0.0000   0.0000   0.0000   0.0000
     0.0000   0.0000   0.0000   0.0000   0.0000

          k = 0.0000 0.2000 0.0000 ( 10076 PWs)   bands (ev):

   -48.9292 -48.9277 -48.9273 -48.9256 -23.2600 -23.2452 -23.2365 -23.2324
   -23.2307 -23.2282 -23.1735 -23.1701 -23.1692 -23.1684 -23.1656 -23.1644
   -22.1136 -22.0868 -22.0849 -22.0714  -6.8502  -6.7226  -6.4033  -6.0367
    -6.0206  -5.9460  -5.7834  -5.7141  -5.5424  -5.4113  -5.4056  -5.3598
    -4.3615  -4.2623  -4.1959  -4.1357  -4.1154  -4.1139  -4.0653  -4.0415
    -3.9913  -3.7976  -3.7509  -3.6826   5.2360   5.2747   5.4219   5.4395
     5.5742   5.6895   5.8186   6.1552   6.2937   6.3669   6.8767   7.2396
     7.2522   7.2980   7.4876   7.4950   7.6356   7.6560   7.7433   8.5509
     8.6018   8.6306   8.6859   8.7842   8.7917   8.8824   8.9305   9.1227
     9.2022   9.3019   9.4619   9.5846  10.0390  10.0417  10.0766  10.1701
    11.9639  12.0684  12.2360  12.4069  14.1358  14.1752  14.3325  14.3898
    14.8736  15.1304  15.1495  15.2663  15.7343  15.9960  16.0365  16.1229
    16.1301  16.3525  16.5853  17.3263  17.5064

     occupation numbers 
     1.0000   1.0000   1.0000   1.0000   1.0000   1.0000   1.0000   1.0000
     1.0000   1.0000   1.0000   1.0000   1.0000   1.0000   1.0000   1.0000
     1.0000   1.0000   1.0000   1.0000   1.0000   1.0000   1.0000   1.0000
     1.0000   1.0000   1.0000   1.0000   1.0000   1.0000   1.0000   1.0000
     1.0000   1.0000   1.0000   1.0000   1.0000   1.0000   1.0000   1.0000
     1.0000   1.0000   1.0000   1.0000   1.0000   1.0000   1.0000   1.0000
     1.0000   1.0000   1.0000   1.0000   1.0000   1.0000   1.0000   1.0000
     1.0000   1.0000   1.0000   1.0000   1.0000   1.0000   1.0000   1.0000
     1.0000   1.0000   1.0000   1.0000   1.0000   1.0000   1.0000   1.0000
     1.0000   1.0000   1.0000   1.0000   1.0000   1.0000   1.0000   1.0000
     1.0000   1.0000   1.0000   1.0000   0.0000   0.0000   0.0000   0.0000
     0.0000   0.0000   0.0000   0.0000   0.0000   0.0000   0.0000   0.0000
     0.0000   0.0000   0.0000   0.0000   0.0000

          k = 0.0000 0.2000 0.1414 ( 10060 PWs)   bands (ev):

   -48.9292 -48.9280 -48.9269 -48.9255 -23.2517 -23.2376 -23.2359 -23.2319
   -23.2311 -23.2285 -23.1793 -23.1728 -23.1727 -23.1689 -23.1682 -23.1660
   -22.1110 -22.0893 -22.0836 -22.0727  -6.8233  -6.7047  -6.3277  -6.0231
    -6.0141  -5.9546  -5.7519  -5.6899  -5.6382  -5.4954  -5.4242  -5.4172
    -4.2946  -4.2915  -4.1341  -4.1281  -4.1161  -4.1063  -4.0805  -4.0077
    -4.0052  -3.8407  -3.7740  -3.7136   5.4235   5.4378   5.4396   5.5246
     5.5968   5.7332   5.8571   6.1923   6.3547   6.3559   6.9526   7.0734
     7.1261   7.3046   7.3939   7.5448   7.6135   7.6188   7.6849   8.3455
     8.5001   8.5063   8.5856   8.8307   8.8769   8.9682   9.0078   9.0954
     9.2146   9.2220   9.4281   9.4281   9.9872   9.9941  10.0455  10.1230
    12.1739  12.2880  12.2917  12.3889  14.1200  14.1566  14.2086  14.2436
    14.8960  15.0475  15.0994  15.1123  16.1181  16.1252  16.1292  16.1481
    16.1910  16.5100  16.9918  17.5434  17.5627

     occupation numbers 
     1.0000   1.0000   1.0000   1.0000   1.0000   1.0000   1.0000   1.0000
     1.0000   1.0000   1.0000   1.0000   1.0000   1.0000   1.0000   1.0000
     1.0000   1.0000   1.0000   1.0000   1.0000   1.0000   1.0000   1.0000
     1.0000   1.0000   1.0000   1.0000   1.0000   1.0000   1.0000   1.0000
     1.0000   1.0000   1.0000   1.0000   1.0000   1.0000   1.0000   1.0000
     1.0000   1.0000   1.0000   1.0000   1.0000   1.0000   1.0000   1.0000
     1.0000   1.0000   1.0000   1.0000   1.0000   1.0000   1.0000   1.0000
     1.0000   1.0000   1.0000   1.0000   1.0000   1.0000   1.0000   1.0000
     1.0000   1.0000   1.0000   1.0000   1.0000   1.0000   1.0000   1.0000
     1.0000   1.0000   1.0000   1.0000   1.0000   1.0000   1.0000   1.0000
     1.0000   1.0000   1.0000   1.0000   0.0000   0.0000   0.0000   0.0000
     0.0000   0.0000   0.0000   0.0000   0.0000   0.0000   0.0000   0.0000
     0.0000   0.0000   0.0000   0.0000   0.0000

          k = 0.0000 0.2000 0.2828 ( 10071 PWs)   bands (ev):

   -48.9287 -48.9283 -48.9266 -48.9261 -23.2346 -23.2327 -23.2309 -23.2296
   -23.2294 -23.2176 -23.2019 -23.1928 -23.1715 -23.1698 -23.1679 -23.1669
   -22.1041 -22.0959 -22.0803 -22.0761  -6.7579  -6.7023  -6.1263  -5.9970
    -5.9746  -5.9391  -5.8491  -5.7243  -5.6652  -5.5938  -5.5415  -5.5017
    -4.2779  -4.1980  -4.1483  -4.1308  -4.1038  -4.0773  -4.0385  -3.9668
    -3.9597  -3.9113  -3.8486  -3.7983   5.4278   5.4332   5.6247   5.6260
     5.8743   6.0385   6.1746   6.3485   6.5331   6.5782   6.7364   6.8104
     6.9326   7.1493   7.3956   7.4370   7.4507   7.5641   7.7357   7.8056
     8.0976   8.1141   8.6522   8.7867   9.0222   9.0676   9.1858   9.2276
     9.2583   9.3091   9.3407   9.4008   9.7156   9.7721  10.0575  10.0787
    12.2819  12.3418  12.8394  12.8661  13.5539  13.5706  14.4243  14.4452
    14.7448  14.7588  14.9609  15.0434  16.1280  16.1288  16.5603  16.5951
    16.8192  17.0961  17.1038  17.1956  17.4705

     occupation numbers 
     1.0000   1.0000   1.0000   1.0000   1.0000   1.0000   1.0000   1.0000
     1.0000   1.0000   1.0000   1.0000   1.0000   1.0000   1.0000   1.0000
     1.0000   1.0000   1.0000   1.0000   1.0000   1.0000   1.0000   1.0000
     1.0000   1.0000   1.0000   1.0000   1.0000   1.0000   1.0000   1.0000
     1.0000   1.0000   1.0000   1.0000   1.0000   1.0000   1.0000   1.0000
     1.0000   1.0000   1.0000   1.0000   1.0000   1.0000   1.0000   1.0000
     1.0000   1.0000   1.0000   1.0000   1.0000   1.0000   1.0000   1.0000
     1.0000   1.0000   1.0000   1.0000   1.0000   1.0000   1.0000   1.0000
     1.0000   1.0000   1.0000   1.0000   1.0000   1.0000   1.0000   1.0000
     1.0000   1.0000   1.0000   1.0000   1.0000   1.0000   1.0000   1.0000
     1.0000   1.0000   1.0000   1.0000   0.9513   0.8964   0.0000   0.0000
     0.0000   0.0000   0.0000   0.0000   0.0000   0.0000   0.0000   0.0000
     0.0000   0.0000   0.0000   0.0000   0.0000

          k = 0.0000 0.4000 0.0000 ( 10072 PWs)   bands (ev):

   -48.9285 -48.9278 -48.9270 -48.9263 -23.2540 -23.2484 -23.2204 -23.2130
   -23.2118 -23.2090 -23.1964 -23.1888 -23.1879 -23.1850 -23.1683 -23.1663
   -22.1005 -22.0897 -22.0838 -22.0779  -6.6919  -6.5931  -6.5095  -6.0284
    -5.9412  -5.9161  -5.8502  -5.7771  -5.7492  -5.5540  -5.5415  -5.5375
    -4.2954  -4.2091  -4.1315  -4.0928  -4.0338  -3.9922  -3.9386  -3.9140
    -3.8816  -3.8606  -3.8073  -3.7904   5.2649   5.2688   6.0609   6.0901
     6.1217   6.1465   6.2670   6.3875   6.4635   6.4978   6.7783   6.8154
     6.8630   6.9547   7.0131   7.0612   7.4202   7.5740   7.6222   7.6452
     7.8751   8.1794   8.4646   8.6808   8.7940   8.9571   8.9662   9.1358
     9.2257   9.2535   9.3802   9.4774   9.5558   9.7048   9.7140   9.9410
    12.6627  12.8620  13.1922  13.4115  13.4886  13.6377  14.1201  14.3944
    14.5014  14.5557  14.8159  14.9022  16.0744  16.4089  16.7655  16.9000
    17.3383  17.4969  17.5557  17.5960  17.9110

     occupation numbers 
     1.0000   1.0000   1.0000   1.0000   1.0000   1.0000   1.0000   1.0000
     1.0000   1.0000   1.0000   1.0000   1.0000   1.0000   1.0000   1.0000
     1.0000   1.0000   1.0000   1.0000   1.0000   1.0000   1.0000   1.0000
     1.0000   1.0000   1.0000   1.0000   1.0000   1.0000   1.0000   1.0000
     1.0000   1.0000   1.0000   1.0000   1.0000   1.0000   1.0000   1.0000
     1.0000   1.0000   1.0000   1.0000   1.0000   1.0000   1.0000   1.0000
     1.0000   1.0000   1.0000   1.0000   1.0000   1.0000   1.0000   1.0000
     1.0000   1.0000   1.0000   1.0000   1.0000   1.0000   1.0000   1.0000
     1.0000   1.0000   1.0000   1.0000   1.0000   1.0000   1.0000   1.0000
     1.0000   1.0000   1.0000   1.0000   1.0000   1.0000   1.0000   1.0000
     1.0000   1.0000   1.0000   1.0000   0.9979   0.2434   0.0000   0.0000
     0.0000   0.0000   0.0000   0.0000   0.0000   0.0000   0.0000   0.0000
     0.0000   0.0000   0.0000   0.0000   0.0000

          k = 0.0000 0.4000 0.1414 ( 10078 PWs)   bands (ev):

   -48.9284 -48.9276 -48.9274 -48.9263 -23.2461 -23.2407 -23.2195 -23.2126
   -23.2125 -23.2093 -23.1958 -23.1888 -23.1885 -23.1855 -23.1766 -23.1742
   -22.0989 -22.0885 -22.0854 -22.0790  -6.6428  -6.5265  -6.4987  -6.0553
    -5.9279  -5.9193  -5.8348  -5.7863  -5.7432  -5.6117  -5.5881  -5.5847
    -4.2544  -4.1926  -4.1394  -4.1228  -4.0528  -4.0469  -3.9437  -3.9234
    -3.8743  -3.8545  -3.7813  -3.7751   5.5157   5.5179   6.0627   6.0886
     6.1234   6.1425   6.3337   6.4770   6.5180   6.5342   6.7607   6.8339
     6.8399   7.0056   7.0106   7.0757   7.2113   7.4305   7.4305   7.5765
     7.8450   7.9134   8.3387   8.4983   8.9080   8.9982   9.1344   9.1578
     9.1670   9.2514   9.3844   9.5031   9.5495   9.6737   9.7045   9.9158
    12.8049  12.9700  13.2177  13.3986  13.5721  13.7087  14.1424  14.3161
    14.3384  14.3678  14.6660  14.7128  16.5142  16.8488  16.8861  17.0040
    17.3393  17.5068  17.5547  17.6739  17.9408

     occupation numbers 
     1.0000   1.0000   1.0000   1.0000   1.0000   1.0000   1.0000   1.0000
     1.0000   1.0000   1.0000   1.0000   1.0000   1.0000   1.0000   1.0000
     1.0000   1.0000   1.0000   1.0000   1.0000   1.0000   1.0000   1.0000
     1.0000   1.0000   1.0000   1.0000   1.0000   1.0000   1.0000   1.0000
     1.0000   1.0000   1.0000   1.0000   1.0000   1.0000   1.0000   1.0000
     1.0000   1.0000   1.0000   1.0000   1.0000   1.0000   1.0000   1.0000
     1.0000   1.0000   1.0000   1.0000   1.0000   1.0000   1.0000   1.0000
     1.0000   1.0000   1.0000   1.0000   1.0000   1.0000   1.0000   1.0000
     1.0000   1.0000   1.0000   1.0000   1.0000   1.0000   1.0000   1.0000
     1.0000   1.0000   1.0000   1.0000   1.0000   1.0000   1.0000   1.0000
     1.0000   1.0000   1.0000   1.0000   0.8891   0.0099   0.0000   0.0000
     0.0000   0.0000   0.0000   0.0000   0.0000   0.0000   0.0000   0.0000
     0.0000   0.0000   0.0000   0.0000   0.0000

          k = 0.0000 0.4000 0.2828 ( 10090 PWs)   bands (ev):

   -48.9283 -48.9277 -48.9273 -48.9266 -23.2252 -23.2207 -23.2173 -23.2143
   -23.2116 -23.2103 -23.1996 -23.1952 -23.1923 -23.1904 -23.1876 -23.1863
   -22.0946 -22.0895 -22.0856 -22.0819  -6.5420  -6.4906  -6.3545  -6.1647
    -5.8931  -5.8921  -5.8475  -5.7763  -5.7518  -5.7159  -5.6692  -5.6681
    -4.1648  -4.1640  -4.1634  -4.1540  -4.0744  -4.0713  -4.0223  -4.0132
    -3.8059  -3.8047  -3.7748  -3.7705   6.0611   6.0802   6.1280   6.1333
     6.1346   6.1349   6.5306   6.5410   6.5866   6.7380   6.7401   6.8205
     6.8420   6.9543   7.0005   7.0007   7.0604   7.1836   7.1840   7.4968
     7.4970   7.5312   7.8090   7.9353   9.1616   9.1851   9.2106   9.2162
     9.3025   9.3575   9.4706   9.5211   9.5262   9.5391   9.7280   9.8277
    13.1977  13.3094  13.3114  13.3400  13.8102  13.8305  13.8637  13.9351
    14.2208  14.2656  14.3074  14.3148  17.2245  17.2793  17.4184  17.5085
    17.5131  17.5537  17.5899  17.6769  17.7008

     occupation numbers 
     1.0000   1.0000   1.0000   1.0000   1.0000   1.0000   1.0000   1.0000
     1.0000   1.0000   1.0000   1.0000   1.0000   1.0000   1.0000   1.0000
     1.0000   1.0000   1.0000   1.0000   1.0000   1.0000   1.0000   1.0000
     1.0000   1.0000   1.0000   1.0000   1.0000   1.0000   1.0000   1.0000
     1.0000   1.0000   1.0000   1.0000   1.0000   1.0000   1.0000   1.0000
     1.0000   1.0000   1.0000   1.0000   1.0000   1.0000   1.0000   1.0000
     1.0000   1.0000   1.0000   1.0000   1.0000   1.0000   1.0000   1.0000
     1.0000   1.0000   1.0000   1.0000   1.0000   1.0000   1.0000   1.0000
     1.0000   1.0000   1.0000   1.0000   1.0000   1.0000   1.0000   1.0000
     1.0000   1.0000   1.0000   1.0000   1.0000   1.0000   1.0000   1.0000
     1.0000   1.0000   1.0000   1.0000   0.0001   0.0000   0.0000   0.0000
     0.0000   0.0000   0.0000   0.0000   0.0000   0.0000   0.0000   0.0000
     0.0000   0.0000   0.0000   0.0000   0.0000

          k = 0.2000 0.2000 0.0000 ( 10069 PWs)   bands (ev):

   -48.9291 -48.9277 -48.9273 -48.9255 -23.2578 -23.2458 -23.2457 -23.2380
   -23.2129 -23.2088 -23.1953 -23.1878 -23.1696 -23.1653 -23.1615 -23.1581
   -22.1083 -22.0864 -22.0852 -22.0739  -6.7705  -6.7501  -6.5402  -6.0423
    -5.8987  -5.8983  -5.8136  -5.6582  -5.6321  -5.4993  -5.4991  -5.4960
    -4.2705  -4.1574  -4.1534  -4.0891  -4.0875  -4.0825  -4.0724  -3.9564
    -3.9423  -3.8480  -3.7368  -3.7086   5.1757   5.2546   5.2705   5.3856
     5.8505   5.9528   6.2280   6.3653   6.3999   6.4686   6.4690   6.9954
     7.0657   7.3246   7.3836   7.4714   7.5637   7.7130   7.7166   8.3201
     8.5247   8.5251   8.5272   8.7279   8.7489   8.8126   8.8234   8.8770
     9.0549   9.3644   9.5933   9.5972   9.8186   9.8231   9.8427  10.2130
    11.7340  12.7271  12.7293  12.8439  13.5883  14.3350  14.3661  14.4628
    14.7352  14.9288  14.9705  15.2232  15.6031  16.2367  16.2671  16.3037
    16.5196  16.5198  17.0949  17.3003  17.8643

     occupation numbers 
     1.0000   1.0000   1.0000   1.0000   1.0000   1.0000   1.0000   1.0000
     1.0000   1.0000   1.0000   1.0000   1.0000   1.0000   1.0000   1.0000
     1.0000   1.0000   1.0000   1.0000   1.0000   1.0000   1.0000   1.0000
     1.0000   1.0000   1.0000   1.0000   1.0000   1.0000   1.0000   1.0000
     1.0000   1.0000   1.0000   1.0000   1.0000   1.0000   1.0000   1.0000
     1.0000   1.0000   1.0000   1.0000   1.0000   1.0000   1.0000   1.0000
     1.0000   1.0000   1.0000   1.0000   1.0000   1.0000   1.0000   1.0000
     1.0000   1.0000   1.0000   1.0000   1.0000   1.0000   1.0000   1.0000
     1.0000   1.0000   1.0000   1.0000   1.0000   1.0000   1.0000   1.0000
     1.0000   1.0000   1.0000   1.0000   1.0000   1.0000   1.0000   1.0000
     1.0000   1.0000   1.0000   1.0000   0.7838   0.0000   0.0000   0.0000
     0.0000   0.0000   0.0000   0.0000   0.0000   0.0000   0.0000   0.0000
     0.0000   0.0000   0.0000   0.0000   0.0000

          k = 0.2000 0.2000 0.1414 ( 10067 PWs)   bands (ev):

   -48.9289 -48.9277 -48.9273 -48.9257 -23.2496 -23.2450 -23.2388 -23.2381
   -23.2126 -23.2093 -23.1947 -23.1884 -23.1780 -23.1731 -23.1612 -23.1584
   -22.1061 -22.0884 -22.0842 -22.0750  -6.7387  -6.7312  -6.4697  -6.0206
    -5.9151  -5.9076  -5.7831  -5.7787  -5.6220  -5.5651  -5.5084  -5.4880
    -4.2987  -4.1409  -4.1239  -4.1046  -4.0917  -4.0654  -4.0407  -3.9682
    -3.9325  -3.8447  -3.7745  -3.7356   5.2387   5.2556   5.5200   5.5786
     5.8943   5.9985   6.2322   6.3521   6.4466   6.4592   6.5890   6.9693
     7.0866   7.0895   7.2322   7.4820   7.4891   7.6559   7.6913   8.1470
     8.3419   8.4036   8.4328   8.7800   8.8129   8.8464   8.9512   9.0751
     9.0867   9.3387   9.3894   9.4581   9.7534   9.8097   9.8452  10.1319
    12.0470  12.7454  12.8292  12.8337  13.6867  14.1190  14.2522  14.4199
    14.7539  14.7746  14.9452  15.1480  15.7871  16.2538  16.4121  16.4419
    16.7143  16.9436  17.1681  17.4927  17.6911

     occupation numbers 
     1.0000   1.0000   1.0000   1.0000   1.0000   1.0000   1.0000   1.0000
     1.0000   1.0000   1.0000   1.0000   1.0000   1.0000   1.0000   1.0000
     1.0000   1.0000   1.0000   1.0000   1.0000   1.0000   1.0000   1.0000
     1.0000   1.0000   1.0000   1.0000   1.0000   1.0000   1.0000   1.0000
     1.0000   1.0000   1.0000   1.0000   1.0000   1.0000   1.0000   1.0000
     1.0000   1.0000   1.0000   1.0000   1.0000   1.0000   1.0000   1.0000
     1.0000   1.0000   1.0000   1.0000   1.0000   1.0000   1.0000   1.0000
     1.0000   1.0000   1.0000   1.0000   1.0000   1.0000   1.0000   1.0000
     1.0000   1.0000   1.0000   1.0000   1.0000   1.0000   1.0000   1.0000
     1.0000   1.0000   1.0000   1.0000   1.0000   1.0000   1.0000   1.0000
     1.0000   1.0000   1.0000   1.0000   0.0284   0.0000   0.0000   0.0000
     0.0000   0.0000   0.0000   0.0000   0.0000   0.0000   0.0000   0.0000
     0.0000   0.0000   0.0000   0.0000   0.0000

          k = 0.2000 0.2000 0.2828 ( 10073 PWs)   bands (ev):

   -48.9285 -48.9281 -48.9268 -48.9263 -23.2432 -23.2408 -23.2279 -23.2183
   -23.2115 -23.2104 -23.2013 -23.1935 -23.1918 -23.1899 -23.1603 -23.1593
   -22.1006 -22.0938 -22.0813 -22.0778  -6.6939  -6.6898  -6.2810  -6.0401
    -5.9341  -5.9253  -5.9129  -5.7589  -5.6748  -5.5763  -5.5579  -5.5364
    -4.2921  -4.2213  -4.1190  -4.1029  -4.0374  -3.9954  -3.9897  -3.9449
    -3.8882  -3.8762  -3.8677  -3.8068   5.2578   5.2581   5.9976   6.0633
     6.1455   6.1612   6.2404   6.3922   6.4654   6.6988   6.7205   6.8179
     6.8636   6.8887   7.0107   7.1987   7.4889   7.5741   7.5827   7.6249
     7.8846   8.1824   8.4642   8.6675   8.8883   8.9543   9.1246   9.2525
     9.2637   9.3161   9.3804   9.4375   9.5565   9.7138   9.8600   9.9386
    12.6609  12.7885  12.8639  13.1919  13.5385  13.7410  13.9748  14.3862
    14.5856  14.8135  14.8433  14.9047  16.0726  16.2019  16.8029  16.8706
    17.2698  17.3481  17.4470  17.5166  17.7742

     occupation numbers 
     1.0000   1.0000   1.0000   1.0000   1.0000   1.0000   1.0000   1.0000
     1.0000   1.0000   1.0000   1.0000   1.0000   1.0000   1.0000   1.0000
     1.0000   1.0000   1.0000   1.0000   1.0000   1.0000   1.0000   1.0000
     1.0000   1.0000   1.0000   1.0000   1.0000   1.0000   1.0000   1.0000
     1.0000   1.0000   1.0000   1.0000   1.0000   1.0000   1.0000   1.0000
     1.0000   1.0000   1.0000   1.0000   1.0000   1.0000   1.0000   1.0000
     1.0000   1.0000   1.0000   1.0000   1.0000   1.0000   1.0000   1.0000
     1.0000   1.0000   1.0000   1.0000   1.0000   1.0000   1.0000   1.0000
     1.0000   1.0000   1.0000   1.0000   1.0000   1.0000   1.0000   1.0000
     1.0000   1.0000   1.0000   1.0000   1.0000   1.0000   1.0000   1.0000
     1.0000   1.0000   1.0000   1.0000   0.9765   0.0020   0.0000   0.0000
     0.0000   0.0000   0.0000   0.0000   0.0000   0.0000   0.0000   0.0000
     0.0000   0.0000   0.0000   0.0000   0.0000

          k = 0.2000 0.4000 0.0000 ( 10091 PWs)   bands (ev):

   -48.9285 -48.9277 -48.9273 -48.9264 -23.2528 -23.2481 -23.2419 -23.2317
   -23.2229 -23.2127 -23.1882 -23.1845 -23.1686 -23.1682 -23.1668 -23.1647
   -22.0970 -22.0883 -22.0843 -22.0795  -6.8119  -6.7345  -6.4687  -6.0623
    -5.9978  -5.9051  -5.7739  -5.7125  -5.6297  -5.6276  -5.5958  -5.5601
    -4.1986  -4.1278  -4.1191  -4.0941  -4.0844  -3.9717  -3.9210  -3.8887
    -3.8354  -3.7935  -3.7856  -3.7264   5.2403   5.2624   5.5153   5.5783
     5.7742   5.8921   6.1809   6.2346   6.4581   6.7238   6.7738   7.0823
     7.0928   7.2270   7.2976   7.4048   7.4767   7.6323   7.6514   7.7944
     8.0663   8.3690   8.3953   8.4280   8.7846   8.8810   8.9276   8.9499
     9.0715   9.2616   9.3440   9.3757   9.3831   9.3879   9.8437  10.1180
    12.1021  12.8293  13.5161  13.5522  13.6857  14.1357  14.2471  14.4296
    14.4683  14.6232  14.7238  15.0668  15.8063  16.2518  16.9297  16.9595
    16.9794  17.3992  17.5355  17.6394  17.9144

     occupation numbers 
     1.0000   1.0000   1.0000   1.0000   1.0000   1.0000   1.0000   1.0000
     1.0000   1.0000   1.0000   1.0000   1.0000   1.0000   1.0000   1.0000
     1.0000   1.0000   1.0000   1.0000   1.0000   1.0000   1.0000   1.0000
     1.0000   1.0000   1.0000   1.0000   1.0000   1.0000   1.0000   1.0000
     1.0000   1.0000   1.0000   1.0000   1.0000   1.0000   1.0000   1.0000
     1.0000   1.0000   1.0000   1.0000   1.0000   1.0000   1.0000   1.0000
     1.0000   1.0000   1.0000   1.0000   1.0000   1.0000   1.0000   1.0000
     1.0000   1.0000   1.0000   1.0000   1.0000   1.0000   1.0000   1.0000
     1.0000   1.0000   1.0000   1.0000   1.0000   1.0000   1.0000   1.0000
     1.0000   1.0000   1.0000   1.0000   1.0000   1.0000   1.0000   1.0000
     1.0000   1.0000   0.9920   0.9552   0.0297   0.0000   0.0000   0.0000
     0.0000   0.0000   0.0000   0.0000   0.0000   0.0000   0.0000   0.0000
     0.0000   0.0000   0.0000   0.0000   0.0000

          k = 0.2000 0.4000 0.1414 ( 10093 PWs)   bands (ev):

   -48.9283 -48.9278 -48.9273 -48.9265 -23.2450 -23.2408 -23.2405 -23.2327
   -23.2218 -23.2135 -23.1880 -23.1848 -23.1763 -23.1745 -23.1683 -23.1653
   -22.0958 -22.0875 -22.0855 -22.0803  -6.7600  -6.6707  -6.4764  -6.1238
    -5.9734  -5.8747  -5.7929  -5.7350  -5.6641  -5.6457  -5.6015  -5.5747
    -4.2005  -4.1396  -4.1251  -4.1232  -4.0617  -3.9489  -3.9450  -3.8703
    -3.8498  -3.7950  -3.7758  -3.7433   5.4300   5.5101   5.5145   5.6311
     5.8713   5.9715   6.1745   6.2692   6.4472   6.7345   6.8107   7.0715
     7.1280   7.1534   7.1872   7.2843   7.4124   7.4653   7.4830   7.7346
     7.8035   8.3612   8.4801   8.6584   8.8110   8.8327   8.9784   9.0350
     9.0668   9.0670   9.2447   9.3284   9.3901   9.3948   9.8185  10.0519
    12.3405  12.9798  13.5634  13.5679  13.6701  14.1715  14.1794  14.3113
    14.4220  14.4613  14.5476  14.9305  16.1244  16.6607  16.9406  17.0542
    17.1021  17.4819  17.6228  17.7267  17.8946

     occupation numbers 
     1.0000   1.0000   1.0000   1.0000   1.0000   1.0000   1.0000   1.0000
     1.0000   1.0000   1.0000   1.0000   1.0000   1.0000   1.0000   1.0000
     1.0000   1.0000   1.0000   1.0000   1.0000   1.0000   1.0000   1.0000
     1.0000   1.0000   1.0000   1.0000   1.0000   1.0000   1.0000   1.0000
     1.0000   1.0000   1.0000   1.0000   1.0000   1.0000   1.0000   1.0000
     1.0000   1.0000   1.0000   1.0000   1.0000   1.0000   1.0000   1.0000
     1.0000   1.0000   1.0000   1.0000   1.0000   1.0000   1.0000   1.0000
     1.0000   1.0000   1.0000   1.0000   1.0000   1.0000   1.0000   1.0000
     1.0000   1.0000   1.0000   1.0000   1.0000   1.0000   1.0000   1.0000
     1.0000   1.0000   1.0000   1.0000   1.0000   1.0000   1.0000   1.0000
     1.0000   1.0000   0.9246   0.9078   0.0619   0.0000   0.0000   0.0000
     0.0000   0.0000   0.0000   0.0000   0.0000   0.0000   0.0000   0.0000
     0.0000   0.0000   0.0000   0.0000   0.0000

          k = 0.2000 0.4000 0.2828 ( 10093 PWs)   bands (ev):

   -48.9281 -48.9276 -48.9274 -48.9268 -23.2386 -23.2354 -23.2245 -23.2209
   -23.2188 -23.2154 -23.1975 -23.1950 -23.1870 -23.1857 -23.1674 -23.1662
   -22.0926 -22.0886 -22.0853 -22.0825  -6.6369  -6.5242  -6.5024  -6.2927
    -5.9054  -5.8322  -5.7921  -5.7659  -5.7467  -5.6952  -5.6213  -5.6017
    -4.2037  -4.1894  -4.1216  -4.1190  -4.0266  -3.9755  -3.9347  -3.9022
    -3.8067  -3.7913  -3.7805  -3.7744   5.5088   5.5127   6.0358   6.0903
     6.1240   6.1538   6.2946   6.3334   6.5208   6.6732   6.7526   6.8411
     6.9282   7.0077   7.0700   7.1995   7.2198   7.3158   7.4303   7.5079
     7.6456   7.8453   8.3281   8.4198   8.9098   8.9792   9.0123   9.0928
     9.1626   9.2372   9.2549   9.3408   9.4413   9.5010   9.7066   9.8329
    12.9275  13.3948  13.5634  13.6045  13.7131  13.7640  13.9536  14.1391
    14.3254  14.3475  14.4034  14.6124  16.6319  16.8601  17.3604  17.4762
    17.4823  17.7326  17.7604  17.8011  17.8899

     occupation numbers 
     1.0000   1.0000   1.0000   1.0000   1.0000   1.0000   1.0000   1.0000
     1.0000   1.0000   1.0000   1.0000   1.0000   1.0000   1.0000   1.0000
     1.0000   1.0000   1.0000   1.0000   1.0000   1.0000   1.0000   1.0000
     1.0000   1.0000   1.0000   1.0000   1.0000   1.0000   1.0000   1.0000
     1.0000   1.0000   1.0000   1.0000   1.0000   1.0000   1.0000   1.0000
     1.0000   1.0000   1.0000   1.0000   1.0000   1.0000   1.0000   1.0000
     1.0000   1.0000   1.0000   1.0000   1.0000   1.0000   1.0000   1.0000
     1.0000   1.0000   1.0000   1.0000   1.0000   1.0000   1.0000   1.0000
     1.0000   1.0000   1.0000   1.0000   1.0000   1.0000   1.0000   1.0000
     1.0000   1.0000   1.0000   1.0000   1.0000   1.0000   1.0000   1.0000
     1.0000   1.0000   0.9247   0.6213   0.0079   0.0007   0.0000   0.0000
     0.0000   0.0000   0.0000   0.0000   0.0000   0.0000   0.0000   0.0000
     0.0000   0.0000   0.0000   0.0000   0.0000

          k = 0.4000 0.4000 0.0000 ( 10083 PWs)   bands (ev):

   -48.9283 -48.9279 -48.9270 -48.9266 -23.2540 -23.2496 -23.2486 -23.2458
   -23.2404 -23.2332 -23.1678 -23.1672 -23.1671 -23.1637 -23.1596 -23.1564
   -22.0904 -22.0871 -22.0845 -22.0827  -6.9431  -6.9147  -6.3501  -6.1851
    -6.0117  -5.9761  -5.7621  -5.7387  -5.7328  -5.7246  -5.4105  -5.3692
    -4.1119  -4.1079  -4.0996  -4.0869  -4.0625  -4.0592  -3.7993  -3.7842
    -3.7661  -3.7574  -3.6739  -3.6516   5.1665   5.2339   5.2717   5.3751
     5.4908   5.5237   5.5265   5.5642   7.0153   7.0209   7.0287   7.2296
     7.2302   7.5810   7.6065   7.6166   7.6210   7.6907   7.8538   7.8561
     7.9478   8.1542   8.3341   8.4159   8.6322   8.7230   8.7703   8.7713
     8.9419   8.9506   9.1991   9.3204   9.4871   9.4894  10.0998  10.1825
    11.8450  12.1662  14.1059  14.1121  14.1541  14.3099  14.3664  14.4280
    14.4428  14.4734  14.9751  15.0922  15.5645  15.8085  16.6114  16.9996
    17.2619  17.3121  17.5684  17.6575  17.8459

     occupation numbers 
     1.0000   1.0000   1.0000   1.0000   1.0000   1.0000   1.0000   1.0000
     1.0000   1.0000   1.0000   1.0000   1.0000   1.0000   1.0000   1.0000
     1.0000   1.0000   1.0000   1.0000   1.0000   1.0000   1.0000   1.0000
     1.0000   1.0000   1.0000   1.0000   1.0000   1.0000   1.0000   1.0000
     1.0000   1.0000   1.0000   1.0000   1.0000   1.0000   1.0000   1.0000
     1.0000   1.0000   1.0000   1.0000   1.0000   1.0000   1.0000   1.0000
     1.0000   1.0000   1.0000   1.0000   1.0000   1.0000   1.0000   1.0000
     1.0000   1.0000   1.0000   1.0000   1.0000   1.0000   1.0000   1.0000
     1.0000   1.0000   1.0000   1.0000   1.0000   1.0000   1.0000   1.0000
     1.0000   1.0000   1.0000   1.0000   1.0000   1.0000   1.0000   1.0000
     1.0000   1.0000   0.0000   0.0000   0.0000   0.0000   0.0000   0.0000
     0.0000   0.0000   0.0000   0.0000   0.0000   0.0000   0.0000   0.0000
     0.0000   0.0000   0.0000   0.0000   0.0000

          k = 0.4000 0.4000 0.1414 ( 10091 PWs)   bands (ev):

   -48.9281 -48.9277 -48.9273 -48.9268 -23.2525 -23.2454 -23.2422 -23.2417
   -23.2402 -23.2344 -23.1756 -23.1749 -23.1668 -23.1641 -23.1593 -23.1567
   -22.0899 -22.0867 -22.0851 -22.0831  -6.8853  -6.8532  -6.4027  -6.2735
    -5.9828  -5.9450  -5.7861  -5.7386  -5.7100  -5.6941  -5.4573  -5.4072
    -4.1335  -4.1069  -4.0988  -4.0682  -4.0643  -4.0000  -3.8119  -3.7976
    -3.7873  -3.7595  -3.6897  -3.6735   5.2311   5.2698   5.4244   5.5238
     5.5721   5.5788   5.5934   5.6907   6.8743   7.0316   7.0831   7.1085
     7.2181   7.2762   7.3028   7.4894   7.5824   7.6442   7.6495   7.8031
     8.2168   8.3441   8.5606   8.6053   8.7261   8.7745   8.7952   8.8564
     8.9049   8.9299   8.9527   9.2055   9.2168   9.3368  10.0369  10.1040
    12.1470  12.4067  14.1016  14.1142  14.1267  14.1719  14.2524  14.3862
    14.3990  14.4670  14.8422  15.0005  15.8034  16.1177  16.5895  17.0044
    17.4047  17.4376  17.6740  17.7409  17.9910

     occupation numbers 
     1.0000   1.0000   1.0000   1.0000   1.0000   1.0000   1.0000   1.0000
     1.0000   1.0000   1.0000   1.0000   1.0000   1.0000   1.0000   1.0000
     1.0000   1.0000   1.0000   1.0000   1.0000   1.0000   1.0000   1.0000
     1.0000   1.0000   1.0000   1.0000   1.0000   1.0000   1.0000   1.0000
     1.0000   1.0000   1.0000   1.0000   1.0000   1.0000   1.0000   1.0000
     1.0000   1.0000   1.0000   1.0000   1.0000   1.0000   1.0000   1.0000
     1.0000   1.0000   1.0000   1.0000   1.0000   1.0000   1.0000   1.0000
     1.0000   1.0000   1.0000   1.0000   1.0000   1.0000   1.0000   1.0000
     1.0000   1.0000   1.0000   1.0000   1.0000   1.0000   1.0000   1.0000
     1.0000   1.0000   1.0000   1.0000   1.0000   1.0000   1.0000   1.0000
     1.0000   1.0000   0.0000   0.0000   0.0000   0.0000   0.0000   0.0000
     0.0000   0.0000   0.0000   0.0000   0.0000   0.0000   0.0000   0.0000
     0.0000   0.0000   0.0000   0.0000   0.0000

          k = 0.4000 0.4000 0.2828 ( 10112 PWs)   bands (ev):

   -48.9277 -48.9276 -48.9276 -48.9273 -23.2491 -23.2451 -23.2419 -23.2380
   -23.2216 -23.2204 -23.1963 -23.1953 -23.1660 -23.1650 -23.1585 -23.1575
   -22.0884 -22.0865 -22.0856 -22.0842  -6.7342  -6.6882  -6.5486  -6.4716
    -5.9081  -5.8661  -5.8260  -5.7792  -5.6656  -5.6120  -5.5641  -5.5019
    -4.1429  -4.1243  -4.0938  -4.0775  -3.9765  -3.9224  -3.8692  -3.8505
    -3.7731  -3.7561  -3.7261  -3.7255   5.2568   5.2649   5.5050   5.5167
     5.8931   5.9420   6.2360   6.2609   6.3621   6.4581   7.0453   7.0827
     7.0893   7.1313   7.2337   7.3491   7.4495   7.4629   7.4818   7.6556
     8.3460   8.4049   8.4709   8.5465   8.6995   8.7777   8.7896   8.8746
     8.8864   8.9526   9.0426   9.0763   9.3717   9.3887   9.8155   9.8419
    12.8252  12.9947  13.5666  13.6766  14.1421  14.1498  14.2388  14.3907
    14.4541  14.4941  14.5465  14.7296  16.2471  16.4968  16.6660  16.9496
    17.6733  17.8934  17.9341  17.9787  18.0408

     occupation numbers 
     1.0000   1.0000   1.0000   1.0000   1.0000   1.0000   1.0000   1.0000
     1.0000   1.0000   1.0000   1.0000   1.0000   1.0000   1.0000   1.0000
     1.0000   1.0000   1.0000   1.0000   1.0000   1.0000   1.0000   1.0000
     1.0000   1.0000   1.0000   1.0000   1.0000   1.0000   1.0000   1.0000
     1.0000   1.0000   1.0000   1.0000   1.0000   1.0000   1.0000   1.0000
     1.0000   1.0000   1.0000   1.0000   1.0000   1.0000   1.0000   1.0000
     1.0000   1.0000   1.0000   1.0000   1.0000   1.0000   1.0000   1.0000
     1.0000   1.0000   1.0000   1.0000   1.0000   1.0000   1.0000   1.0000
     1.0000   1.0000   1.0000   1.0000   1.0000   1.0000   1.0000   1.0000
     1.0000   1.0000   1.0000   1.0000   1.0000   1.0000   1.0000   1.0000
     1.0000   1.0000   0.9130   0.0458   0.0000   0.0000   0.0000   0.0000
     0.0000   0.0000   0.0000   0.0000   0.0000   0.0000   0.0000   0.0000
     0.0000   0.0000   0.0000   0.0000   0.0000

          k = 0.2000 0.0000 0.0000 ( 10076 PWs)   bands (ev):

   -48.9292 -48.9277 -48.9273 -48.9256 -23.2600 -23.2452 -23.2346 -23.2343
   -23.2304 -23.2284 -23.1714 -23.1713 -23.1701 -23.1682 -23.1659 -23.1644
   -22.1136 -22.0868 -22.0850 -22.0714  -6.8498  -6.7204  -6.3982  -6.0383
    -6.0207  -5.9469  -5.7957  -5.7126  -5.5324  -5.4086  -5.4061  -5.3728
    -4.3443  -4.2486  -4.2165  -4.1257  -4.1245  -4.0973  -4.0636  -4.0545
    -4.0038  -3.7819  -3.7643  -3.6837   5.2358   5.2744   5.4212   5.4390
     5.5790   5.6864   5.8216   6.1570   6.2949   6.3650   6.8811   7.2434
     7.2526   7.2992   7.4946   7.5008   7.6310   7.6513   7.7435   8.5696
     8.5751   8.6200   8.7465   8.7870   8.7904   8.8501   8.9283   9.1110
     9.1996   9.3039   9.4541   9.5800  10.0369  10.0410  10.0798  10.1556
    11.9706  12.0639  12.2449  12.4086  14.1202  14.1946  14.3434  14.3759
    14.8771  15.1304  15.1810  15.2247  15.7487  16.0044  16.0245  16.1138
    16.1180  16.3627  16.5840  17.3438  17.3945

     occupation numbers 
     1.0000   1.0000   1.0000   1.0000   1.0000   1.0000   1.0000   1.0000
     1.0000   1.0000   1.0000   1.0000   1.0000   1.0000   1.0000   1.0000
     1.0000   1.0000   1.0000   1.0000   1.0000   1.0000   1.0000   1.0000
     1.0000   1.0000   1.0000   1.0000   1.0000   1.0000   1.0000   1.0000
     1.0000   1.0000   1.0000   1.0000   1.0000   1.0000   1.0000   1.0000
     1.0000   1.0000   1.0000   1.0000   1.0000   1.0000   1.0000   1.0000
     1.0000   1.0000   1.0000   1.0000   1.0000   1.0000   1.0000   1.0000
     1.0000   1.0000   1.0000   1.0000   1.0000   1.0000   1.0000   1.0000
     1.0000   1.0000   1.0000   1.0000   1.0000   1.0000   1.0000   1.0000
     1.0000   1.0000   1.0000   1.0000   1.0000   1.0000   1.0000   1.0000
     1.0000   1.0000   1.0000   1.0000   0.0000   0.0000   0.0000   0.0000
     0.0000   0.0000   0.0000   0.0000   0.0000   0.0000   0.0000   0.0000
     0.0000   0.0000   0.0000   0.0000   0.0000

          k = 0.2000 0.0000-0.1414 ( 10060 PWs)   bands (ev):

   -48.9292 -48.9280 -48.9269 -48.9255 -23.2517 -23.2376 -23.2341 -23.2337
   -23.2308 -23.2289 -23.1792 -23.1728 -23.1711 -23.1706 -23.1679 -23.1664
   -22.1110 -22.0893 -22.0836 -22.0726  -6.8227  -6.7028  -6.3223  -6.0241
    -6.0144  -5.9547  -5.7703  -5.6840  -5.6311  -5.4901  -5.4281  -5.4256
    -4.2957  -4.2746  -4.1239  -4.1236  -4.1110  -4.1054  -4.0934  -4.0177
    -4.0160  -3.8254  -3.7861  -3.7150   5.4228   5.4372   5.4396   5.5245
     5.6017   5.7298   5.8608   6.1907   6.3559   6.3565   6.9575   7.0724
     7.1300   7.3064   7.3984   7.5513   7.6145   7.6149   7.6796   8.3414
     8.5076   8.5128   8.5923   8.8061   8.9447   8.9558   8.9674   9.1013
     9.2048   9.2151   9.4198   9.4274   9.9863   9.9874  10.0449  10.1157
    12.1807  12.2876  12.2955  12.3909  14.1269  14.1492  14.1928  14.2629
    14.8985  15.0582  15.0832  15.1196  16.1136  16.1194  16.1218  16.1550
    16.1798  16.5186  16.9894  17.5404  17.5656

     occupation numbers 
     1.0000   1.0000   1.0000   1.0000   1.0000   1.0000   1.0000   1.0000
     1.0000   1.0000   1.0000   1.0000   1.0000   1.0000   1.0000   1.0000
     1.0000   1.0000   1.0000   1.0000   1.0000   1.0000   1.0000   1.0000
     1.0000   1.0000   1.0000   1.0000   1.0000   1.0000   1.0000   1.0000
     1.0000   1.0000   1.0000   1.0000   1.0000   1.0000   1.0000   1.0000
     1.0000   1.0000   1.0000   1.0000   1.0000   1.0000   1.0000   1.0000
     1.0000   1.0000   1.0000   1.0000   1.0000   1.0000   1.0000   1.0000
     1.0000   1.0000   1.0000   1.0000   1.0000   1.0000   1.0000   1.0000
     1.0000   1.0000   1.0000   1.0000   1.0000   1.0000   1.0000   1.0000
     1.0000   1.0000   1.0000   1.0000   1.0000   1.0000   1.0000   1.0000
     1.0000   1.0000   1.0000   1.0000   0.0000   0.0000   0.0000   0.0000
     0.0000   0.0000   0.0000   0.0000   0.0000   0.0000   0.0000   0.0000
     0.0000   0.0000   0.0000   0.0000   0.0000

          k = 0.0000 0.2000-0.1414 ( 10060 PWs)   bands (ev):

   -48.9292 -48.9280 -48.9269 -48.9255 -23.2517 -23.2376 -23.2359 -23.2319
   -23.2311 -23.2285 -23.1793 -23.1728 -23.1727 -23.1689 -23.1682 -23.1660
   -22.1110 -22.0893 -22.0836 -22.0727  -6.8233  -6.7047  -6.3277  -6.0231
    -6.0141  -5.9546  -5.7519  -5.6899  -5.6382  -5.4954  -5.4242  -5.4172
    -4.2946  -4.2915  -4.1341  -4.1281  -4.1161  -4.1063  -4.0805  -4.0077
    -4.0052  -3.8407  -3.7740  -3.7136   5.4235   5.4378   5.4396   5.5246
     5.5968   5.7332   5.8571   6.1923   6.3547   6.3559   6.9526   7.0734
     7.1261   7.3046   7.3939   7.5448   7.6135   7.6188   7.6849   8.3455
     8.5001   8.5063   8.5856   8.8307   8.8769   8.9682   9.0078   9.0954
     9.2146   9.2220   9.4281   9.4281   9.9872   9.9941  10.0455  10.1230
    12.1739  12.2880  12.2917  12.3889  14.1200  14.1566  14.2086  14.2436
    14.8960  15.0475  15.0994  15.1123  16.1181  16.1252  16.1292  16.1481
    16.1910  16.5100  16.9918  17.5366  17.5626

     occupation numbers 
     1.0000   1.0000   1.0000   1.0000   1.0000   1.0000   1.0000   1.0000
     1.0000   1.0000   1.0000   1.0000   1.0000   1.0000   1.0000   1.0000
     1.0000   1.0000   1.0000   1.0000   1.0000   1.0000   1.0000   1.0000
     1.0000   1.0000   1.0000   1.0000   1.0000   1.0000   1.0000   1.0000
     1.0000   1.0000   1.0000   1.0000   1.0000   1.0000   1.0000   1.0000
     1.0000   1.0000   1.0000   1.0000   1.0000   1.0000   1.0000   1.0000
     1.0000   1.0000   1.0000   1.0000   1.0000   1.0000   1.0000   1.0000
     1.0000   1.0000   1.0000   1.0000   1.0000   1.0000   1.0000   1.0000
     1.0000   1.0000   1.0000   1.0000   1.0000   1.0000   1.0000   1.0000
     1.0000   1.0000   1.0000   1.0000   1.0000   1.0000   1.0000   1.0000
     1.0000   1.0000   1.0000   1.0000   0.0000   0.0000   0.0000   0.0000
     0.0000   0.0000   0.0000   0.0000   0.0000   0.0000   0.0000   0.0000
     0.0000   0.0000   0.0000   0.0000   0.0000

          k = 0.2000 0.0000-0.2828 ( 10071 PWs)   bands (ev):

   -48.9287 -48.9283 -48.9266 -48.9261 -23.2333 -23.2323 -23.2318 -23.2305
   -23.2294 -23.2176 -23.2019 -23.1928 -23.1701 -23.1693 -23.1690 -23.1677
   -22.1041 -22.0959 -22.0803 -22.0761  -6.7570  -6.7009  -6.1195  -5.9981
    -5.9730  -5.9295  -5.8552  -5.7548  -5.6336  -5.6062  -5.5462  -5.5039
    -4.2801  -4.1989  -4.1214  -4.1180  -4.1111  -4.0770  -4.0510  -3.9774
    -3.9450  -3.9158  -3.8587  -3.8009   5.4272   5.4327   5.6285   5.6288
     5.8719   6.0385   6.1747   6.3477   6.5335   6.5802   6.7351   6.8147
     6.9340   7.1591   7.3966   7.4019   7.4755   7.5624   7.7411   7.8071
     8.0985   8.1195   8.6612   8.8001   9.0172   9.0695   9.1794   9.2258
     9.2335   9.3290   9.3382   9.3763   9.7182   9.7601  10.0569  10.0775
    12.2874  12.3450  12.8467  12.8609  13.5586  13.5672  14.4097  14.4640
    14.7351  14.7722  14.9625  15.0450  16.1174  16.1199  16.5641  16.5827
    16.8259  17.0901  17.0998  17.2058  17.4784

     occupation numbers 
     1.0000   1.0000   1.0000   1.0000   1.0000   1.0000   1.0000   1.0000
     1.0000   1.0000   1.0000   1.0000   1.0000   1.0000   1.0000   1.0000
     1.0000   1.0000   1.0000   1.0000   1.0000   1.0000   1.0000   1.0000
     1.0000   1.0000   1.0000   1.0000   1.0000   1.0000   1.0000   1.0000
     1.0000   1.0000   1.0000   1.0000   1.0000   1.0000   1.0000   1.0000
     1.0000   1.0000   1.0000   1.0000   1.0000   1.0000   1.0000   1.0000
     1.0000   1.0000   1.0000   1.0000   1.0000   1.0000   1.0000   1.0000
     1.0000   1.0000   1.0000   1.0000   1.0000   1.0000   1.0000   1.0000
     1.0000   1.0000   1.0000   1.0000   1.0000   1.0000   1.0000   1.0000
     1.0000   1.0000   1.0000   1.0000   1.0000   1.0000   1.0000   1.0000
     1.0000   1.0000   1.0000   1.0000   0.9397   0.9108   0.0000   0.0000
     0.0000   0.0000   0.0000   0.0000   0.0000   0.0000   0.0000   0.0000
     0.0000   0.0000   0.0000   0.0000   0.0000

          k = 0.0000 0.2000-0.2828 ( 10071 PWs)   bands (ev):

   -48.9287 -48.9283 -48.9266 -48.9261 -23.2346 -23.2327 -23.2309 -23.2296
   -23.2294 -23.2176 -23.2019 -23.1928 -23.1715 -23.1698 -23.1679 -23.1669
   -22.1041 -22.0959 -22.0803 -22.0761  -6.7579  -6.7023  -6.1263  -5.9970
    -5.9746  -5.9391  -5.8491  -5.7243  -5.6652  -5.5938  -5.5415  -5.5017
    -4.2779  -4.1980  -4.1483  -4.1308  -4.1038  -4.0773  -4.0385  -3.9668
    -3.9597  -3.9113  -3.8486  -3.7983   5.4278   5.4332   5.6247   5.6260
     5.8743   6.0385   6.1746   6.3485   6.5331   6.5782   6.7364   6.8104
     6.9326   7.1493   7.3956   7.4370   7.4507   7.5641   7.7357   7.8056
     8.0976   8.1141   8.6522   8.7867   9.0222   9.0676   9.1858   9.2276
     9.2583   9.3091   9.3407   9.4008   9.7156   9.7721  10.0575  10.0787
    12.2819  12.3418  12.8394  12.8661  13.5539  13.5706  14.4243  14.4452
    14.7448  14.7588  14.9609  15.0434  16.1280  16.1288  16.5603  16.5951
    16.8192  17.0961  17.1038  17.1956  17.4705

     occupation numbers 
     1.0000   1.0000   1.0000   1.0000   1.0000   1.0000   1.0000   1.0000
     1.0000   1.0000   1.0000   1.0000   1.0000   1.0000   1.0000   1.0000
     1.0000   1.0000   1.0000   1.0000   1.0000   1.0000   1.0000   1.0000
     1.0000   1.0000   1.0000   1.0000   1.0000   1.0000   1.0000   1.0000
     1.0000   1.0000   1.0000   1.0000   1.0000   1.0000   1.0000   1.0000
     1.0000   1.0000   1.0000   1.0000   1.0000   1.0000   1.0000   1.0000
     1.0000   1.0000   1.0000   1.0000   1.0000   1.0000   1.0000   1.0000
     1.0000   1.0000   1.0000   1.0000   1.0000   1.0000   1.0000   1.0000
     1.0000   1.0000   1.0000   1.0000   1.0000   1.0000   1.0000   1.0000
     1.0000   1.0000   1.0000   1.0000   1.0000   1.0000   1.0000   1.0000
     1.0000   1.0000   1.0000   1.0000   0.9513   0.8964   0.0000   0.0000
     0.0000   0.0000   0.0000   0.0000   0.0000   0.0000   0.0000   0.0000
     0.0000   0.0000   0.0000   0.0000   0.0000

          k = 0.4000 0.0000 0.0000 ( 10072 PWs)   bands (ev):

   -48.9285 -48.9278 -48.9270 -48.9264 -23.2541 -23.2484 -23.2182 -23.2151
   -23.2112 -23.2096 -23.1942 -23.1910 -23.1873 -23.1857 -23.1684 -23.1663
   -22.1005 -22.0897 -22.0838 -22.0779  -6.6859  -6.5855  -6.5077  -6.0237
    -5.9419  -5.9220  -5.8551  -5.7808  -5.7615  -5.5621  -5.5414  -5.5353
    -4.2771  -4.1928  -4.1093  -4.0859  -4.0396  -4.0109  -3.9356  -3.9286
    -3.8946  -3.8507  -3.8123  -3.8006   5.2641   5.2680   6.0666   6.0965
     6.1188   6.1444   6.2722   6.3969   6.4650   6.4988   6.7864   6.8248
     6.8601   6.9613   7.0076   7.0551   7.4366   7.5854   7.6205   7.6477
     7.8624   8.1834   8.4620   8.6797   8.8041   8.9463   8.9608   9.1447
     9.2146   9.2414   9.3646   9.4640   9.5568   9.7022   9.7181   9.9219
    12.6618  12.8654  13.2019  13.4150  13.4711  13.6589  14.1249  14.3972
    14.5233  14.5305  14.8452  14.8657  16.0786  16.4084  16.7899  16.8779
    17.3700  17.4903  17.5135  17.6321  17.9266

     occupation numbers 
     1.0000   1.0000   1.0000   1.0000   1.0000   1.0000   1.0000   1.0000
     1.0000   1.0000   1.0000   1.0000   1.0000   1.0000   1.0000   1.0000
     1.0000   1.0000   1.0000   1.0000   1.0000   1.0000   1.0000   1.0000
     1.0000   1.0000   1.0000   1.0000   1.0000   1.0000   1.0000   1.0000
     1.0000   1.0000   1.0000   1.0000   1.0000   1.0000   1.0000   1.0000
     1.0000   1.0000   1.0000   1.0000   1.0000   1.0000   1.0000   1.0000
     1.0000   1.0000   1.0000   1.0000   1.0000   1.0000   1.0000   1.0000
     1.0000   1.0000   1.0000   1.0000   1.0000   1.0000   1.0000   1.0000
     1.0000   1.0000   1.0000   1.0000   1.0000   1.0000   1.0000   1.0000
     1.0000   1.0000   1.0000   1.0000   1.0000   1.0000   1.0000   1.0000
     1.0000   1.0000   1.0000   0.9999   0.9991   0.1024   0.0000   0.0000
     0.0000   0.0000   0.0000   0.0000   0.0000   0.0000   0.0000   0.0000
     0.0000   0.0000   0.0000   0.0000   0.0000

          k = 0.4000 0.0000-0.1414 ( 10078 PWs)   bands (ev):

   -48.9284 -48.9276 -48.9274 -48.9263 -23.2461 -23.2407 -23.2173 -23.2147
   -23.2115 -23.2103 -23.1936 -23.1906 -23.1877 -23.1865 -23.1766 -23.1742
   -22.0989 -22.0885 -22.0853 -22.0790  -6.6368  -6.5184  -6.4968  -6.0497
    -5.9278  -5.9248  -5.8337  -5.8002  -5.7519  -5.6058  -5.5962  -5.5904
    -4.2358  -4.1762  -4.1157  -4.1100  -4.0927  -4.0310  -3.9664  -3.9059
[...]
     7.8050   8.3629   8.4719   8.6572   8.8161   8.8381   8.9687   9.0232
     9.0549   9.0672   9.2638   9.3092   9.3848   9.3949   9.8132  10.0456
    12.3421  12.9809  13.5648  13.5714  13.6688  14.1740  14.1839  14.3124
    14.4197  14.4651  14.5476  14.9319  16.1216  16.6584  16.9369  17.0639
    17.0955  17.4847  17.6284  17.7450  17.9005

     occupation numbers 
     1.0000   1.0000   1.0000   1.0000   1.0000   1.0000   1.0000   1.0000
     1.0000   1.0000   1.0000   1.0000   1.0000   1.0000   1.0000   1.0000
     1.0000   1.0000   1.0000   1.0000   1.0000   1.0000   1.0000   1.0000
     1.0000   1.0000   1.0000   1.0000   1.0000   1.0000   1.0000   1.0000
     1.0000   1.0000   1.0000   1.0000   1.0000   1.0000   1.0000   1.0000
     1.0000   1.0000   1.0000   1.0000   1.0000   1.0000   1.0000   1.0000
     1.0000   1.0000   1.0000   1.0000   1.0000   1.0000   1.0000   1.0000
     1.0000   1.0000   1.0000   1.0000   1.0000   1.0000   1.0000   1.0000
     1.0000   1.0000   1.0000   1.0000   1.0000   1.0000   1.0000   1.0000
     1.0000   1.0000   1.0000   1.0000   1.0000   1.0000   1.0000   1.0000
     1.0000   1.0000   0.9200   0.8924   0.0657   0.0000   0.0000   0.0000
     0.0000   0.0000   0.0000   0.0000   0.0000   0.0000   0.0000   0.0000
     0.0000   0.0000   0.0000   0.0000   0.0000

          k =-0.4000-0.2000-0.1414 ( 10093 PWs)   bands (ev):

   -48.9283 -48.9278 -48.9273 -48.9266 -23.2450 -23.2407 -23.2405 -23.2327
   -23.2217 -23.2135 -23.1881 -23.1849 -23.1763 -23.1745 -23.1684 -23.1653
   -22.0958 -22.0875 -22.0855 -22.0803  -6.7573  -6.6674  -6.4750  -6.1214
    -5.9756  -5.8804  -5.7929  -5.7207  -5.6654  -5.6579  -5.6034  -5.5835
    -4.1918  -4.1363  -4.1254  -4.1145  -4.0454  -3.9557  -3.9380  -3.8840
    -3.8579  -3.7976  -3.7807  -3.7451   5.4297   5.5097   5.5154   5.6322
     5.8734   5.9745   6.1757   6.2702   6.4473   6.7368   6.8129   7.0748
     7.1310   7.1545   7.1940   7.2829   7.4267   7.4537   7.4850   7.7391
     7.8050   8.3629   8.4719   8.6572   8.8161   8.8381   8.9687   9.0232
     9.0549   9.0672   9.2638   9.3092   9.3848   9.3949   9.8132  10.0456
    12.3421  12.9809  13.5648  13.5714  13.6688  14.1740  14.1839  14.3124
    14.4197  14.4651  14.5476  14.9319  16.1216  16.6584  16.9369  17.0639
    17.0955  17.4847  17.6284  17.7451  17.9009

     occupation numbers 
     1.0000   1.0000   1.0000   1.0000   1.0000   1.0000   1.0000   1.0000
     1.0000   1.0000   1.0000   1.0000   1.0000   1.0000   1.0000   1.0000
     1.0000   1.0000   1.0000   1.0000   1.0000   1.0000   1.0000   1.0000
     1.0000   1.0000   1.0000   1.0000   1.0000   1.0000   1.0000   1.0000
     1.0000   1.0000   1.0000   1.0000   1.0000   1.0000   1.0000   1.0000
     1.0000   1.0000   1.0000   1.0000   1.0000   1.0000   1.0000   1.0000
     1.0000   1.0000   1.0000   1.0000   1.0000   1.0000   1.0000   1.0000
     1.0000   1.0000   1.0000   1.0000   1.0000   1.0000   1.0000   1.0000
     1.0000   1.0000   1.0000   1.0000   1.0000   1.0000   1.0000   1.0000
     1.0000   1.0000   1.0000   1.0000   1.0000   1.0000   1.0000   1.0000
     1.0000   1.0000   0.9200   0.8924   0.0657   0.0000   0.0000   0.0000
     0.0000   0.0000   0.0000   0.0000   0.0000   0.0000   0.0000   0.0000
     0.0000   0.0000   0.0000   0.0000   0.0000

          k =-0.2000 0.4000-0.1414 ( 10093 PWs)   bands (ev):

   -48.9283 -48.9278 -48.9273 -48.9265 -23.2450 -23.2408 -23.2405 -23.2327
   -23.2218 -23.2135 -23.1880 -23.1848 -23.1763 -23.1745 -23.1683 -23.1653
   -22.0958 -22.0875 -22.0855 -22.0803  -6.7600  -6.6707  -6.4764  -6.1238
    -5.9734  -5.8747  -5.7929  -5.7350  -5.6641  -5.6457  -5.6015  -5.5747
    -4.2005  -4.1396  -4.1251  -4.1232  -4.0617  -3.9489  -3.9450  -3.8703
    -3.8498  -3.7950  -3.7758  -3.7433   5.4300   5.5101   5.5145   5.6311
     5.8713   5.9715   6.1745   6.2692   6.4472   6.7345   6.8107   7.0715
     7.1280   7.1534   7.1872   7.2843   7.4124   7.4653   7.4830   7.7346
     7.8035   8.3612   8.4801   8.6584   8.8110   8.8327   8.9784   9.0350
     9.0668   9.0670   9.2447   9.3284   9.3901   9.3948   9.8185  10.0519
    12.3405  12.9798  13.5634  13.5679  13.6701  14.1715  14.1794  14.3113
    14.4220  14.4613  14.5476  14.9305  16.1244  16.6607  16.9406  17.0542
    17.1021  17.4819  17.6228  17.7267  17.8947

     occupation numbers 
     1.0000   1.0000   1.0000   1.0000   1.0000   1.0000   1.0000   1.0000
     1.0000   1.0000   1.0000   1.0000   1.0000   1.0000   1.0000   1.0000
     1.0000   1.0000   1.0000   1.0000   1.0000   1.0000   1.0000   1.0000
     1.0000   1.0000   1.0000   1.0000   1.0000   1.0000   1.0000   1.0000
     1.0000   1.0000   1.0000   1.0000   1.0000   1.0000   1.0000   1.0000
     1.0000   1.0000   1.0000   1.0000   1.0000   1.0000   1.0000   1.0000
     1.0000   1.0000   1.0000   1.0000   1.0000   1.0000   1.0000   1.0000
     1.0000   1.0000   1.0000   1.0000   1.0000   1.0000   1.0000   1.0000
     1.0000   1.0000   1.0000   1.0000   1.0000   1.0000   1.0000   1.0000
     1.0000   1.0000   1.0000   1.0000   1.0000   1.0000   1.0000   1.0000
     1.0000   1.0000   0.9246   0.9078   0.0619   0.0000   0.0000   0.0000
     0.0000   0.0000   0.0000   0.0000   0.0000   0.0000   0.0000   0.0000
     0.0000   0.0000   0.0000   0.0000   0.0000

          k = 0.4000 0.2000-0.2828 ( 10093 PWs)   bands (ev):

   -48.9281 -48.9276 -48.9274 -48.9269 -23.2385 -23.2353 -23.2245 -23.2208
   -23.2188 -23.2154 -23.1975 -23.1950 -23.1871 -23.1858 -23.1675 -23.1662
   -22.0926 -22.0886 -22.0853 -22.0825  -6.6344  -6.5224  -6.4991  -6.2899
    -5.9054  -5.8322  -5.7954  -5.7583  -5.7461  -5.7083  -5.6252  -5.6079
    -4.1997  -4.1873  -4.1250  -4.1153  -3.9926  -3.9548  -3.9461  -3.9239
    -3.8130  -3.7967  -3.7857  -3.7799   5.5095   5.5136   6.0387   6.0938
     6.1235   6.1554   6.2935   6.3351   6.5220   6.6785   6.7528   6.8420
     6.9276   7.0097   7.0714   7.1996   7.2185   7.3153   7.4353   7.5142
     7.6458   7.8450   8.3364   8.4275   8.9031   8.9679   9.0062   9.0932
     9.1543   9.2379   9.2396   9.3563   9.4288   9.4995   9.7005   9.8272
    12.9294  13.3977  13.5637  13.6092  13.7138  13.7639  13.9526  14.1382
    14.3287  14.3519  14.4063  14.6153  16.6269  16.8549  17.3517  17.4629
    17.4893  17.7447  17.7722  17.8220  17.9261

     occupation numbers 
     1.0000   1.0000   1.0000   1.0000   1.0000   1.0000   1.0000   1.0000
     1.0000   1.0000   1.0000   1.0000   1.0000   1.0000   1.0000   1.0000
     1.0000   1.0000   1.0000   1.0000   1.0000   1.0000   1.0000   1.0000
     1.0000   1.0000   1.0000   1.0000   1.0000   1.0000   1.0000   1.0000
     1.0000   1.0000   1.0000   1.0000   1.0000   1.0000   1.0000   1.0000
     1.0000   1.0000   1.0000   1.0000   1.0000   1.0000   1.0000   1.0000
     1.0000   1.0000   1.0000   1.0000   1.0000   1.0000   1.0000   1.0000
     1.0000   1.0000   1.0000   1.0000   1.0000   1.0000   1.0000   1.0000
     1.0000   1.0000   1.0000   1.0000   1.0000   1.0000   1.0000   1.0000
     1.0000   1.0000   1.0000   1.0000   1.0000   1.0000   1.0000   1.0000
     1.0000   1.0000   0.9238   0.5660   0.0077   0.0007   0.0000   0.0000
     0.0000   0.0000   0.0000   0.0000   0.0000   0.0000   0.0000   0.0000
     0.0000   0.0000   0.0000   0.0000   0.0000

          k =-0.4000-0.2000-0.2828 ( 10093 PWs)   bands (ev):

   -48.9281 -48.9276 -48.9274 -48.9269 -23.2385 -23.2353 -23.2245 -23.2208
   -23.2188 -23.2154 -23.1975 -23.1950 -23.1871 -23.1858 -23.1675 -23.1662
   -22.0926 -22.0886 -22.0853 -22.0825  -6.6344  -6.5224  -6.4991  -6.2899
    -5.9054  -5.8322  -5.7954  -5.7583  -5.7461  -5.7083  -5.6252  -5.6079
    -4.1997  -4.1873  -4.1250  -4.1153  -3.9926  -3.9548  -3.9461  -3.9239
    -3.8130  -3.7967  -3.7857  -3.7799   5.5095   5.5136   6.0387   6.0938
     6.1235   6.1554   6.2935   6.3351   6.5220   6.6785   6.7528   6.8420
     6.9276   7.0097   7.0714   7.1996   7.2185   7.3153   7.4353   7.5142
     7.6458   7.8450   8.3364   8.4275   8.9031   8.9679   9.0062   9.0932
     9.1543   9.2379   9.2396   9.3563   9.4288   9.4995   9.7005   9.8272
    12.9294  13.3977  13.5637  13.6092  13.7138  13.7639  13.9526  14.1382
    14.3287  14.3519  14.4063  14.6153  16.6269  16.8549  17.3517  17.4629
    17.4893  17.7447  17.7722  17.8220  17.9269

     occupation numbers 
     1.0000   1.0000   1.0000   1.0000   1.0000   1.0000   1.0000   1.0000
     1.0000   1.0000   1.0000   1.0000   1.0000   1.0000   1.0000   1.0000
     1.0000   1.0000   1.0000   1.0000   1.0000   1.0000   1.0000   1.0000
     1.0000   1.0000   1.0000   1.0000   1.0000   1.0000   1.0000   1.0000
     1.0000   1.0000   1.0000   1.0000   1.0000   1.0000   1.0000   1.0000
     1.0000   1.0000   1.0000   1.0000   1.0000   1.0000   1.0000   1.0000
     1.0000   1.0000   1.0000   1.0000   1.0000   1.0000   1.0000   1.0000
     1.0000   1.0000   1.0000   1.0000   1.0000   1.0000   1.0000   1.0000
     1.0000   1.0000   1.0000   1.0000   1.0000   1.0000   1.0000   1.0000
     1.0000   1.0000   1.0000   1.0000   1.0000   1.0000   1.0000   1.0000
     1.0000   1.0000   0.9238   0.5660   0.0077   0.0007   0.0000   0.0000
     0.0000   0.0000   0.0000   0.0000   0.0000   0.0000   0.0000   0.0000
     0.0000   0.0000   0.0000   0.0000   0.0000

          k =-0.2000 0.4000-0.2828 ( 10093 PWs)   bands (ev):

   -48.9281 -48.9276 -48.9274 -48.9268 -23.2386 -23.2354 -23.2245 -23.2209
   -23.2188 -23.2154 -23.1975 -23.1950 -23.1870 -23.1857 -23.1674 -23.1662
   -22.0926 -22.0886 -22.0853 -22.0825  -6.6369  -6.5242  -6.5024  -6.2927
    -5.9054  -5.8322  -5.7921  -5.7659  -5.7467  -5.6952  -5.6213  -5.6017
    -4.2037  -4.1894  -4.1216  -4.1190  -4.0266  -3.9755  -3.9347  -3.9022
    -3.8067  -3.7913  -3.7805  -3.7744   5.5088   5.5127   6.0358   6.0903
     6.1240   6.1538   6.2946   6.3334   6.5208   6.6732   6.7526   6.8411
     6.9282   7.0077   7.0700   7.1995   7.2198   7.3158   7.4303   7.5079
     7.6456   7.8453   8.3281   8.4198   8.9098   8.9792   9.0123   9.0928
     9.1626   9.2372   9.2549   9.3408   9.4413   9.5010   9.7066   9.8329
    12.9275  13.3948  13.5634  13.6045  13.7131  13.7640  13.9536  14.1391
    14.3254  14.3475  14.4034  14.6124  16.6319  16.8601  17.3604  17.4762
    17.4823  17.7328  17.7604  17.8011  17.8896

     occupation numbers 
     1.0000   1.0000   1.0000   1.0000   1.0000   1.0000   1.0000   1.0000
     1.0000   1.0000   1.0000   1.0000   1.0000   1.0000   1.0000   1.0000
     1.0000   1.0000   1.0000   1.0000   1.0000   1.0000   1.0000   1.0000
     1.0000   1.0000   1.0000   1.0000   1.0000   1.0000   1.0000   1.0000
     1.0000   1.0000   1.0000   1.0000   1.0000   1.0000   1.0000   1.0000
     1.0000   1.0000   1.0000   1.0000   1.0000   1.0000   1.0000   1.0000
     1.0000   1.0000   1.0000   1.0000   1.0000   1.0000   1.0000   1.0000
     1.0000   1.0000   1.0000   1.0000   1.0000   1.0000   1.0000   1.0000
     1.0000   1.0000   1.0000   1.0000   1.0000   1.0000   1.0000   1.0000
     1.0000   1.0000   1.0000   1.0000   1.0000   1.0000   1.0000   1.0000
     1.0000   1.0000   0.9247   0.6213   0.0079   0.0007   0.0000   0.0000
     0.0000   0.0000   0.0000   0.0000   0.0000   0.0000   0.0000   0.0000
     0.0000   0.0000   0.0000   0.0000   0.0000

          k = 0.4000 0.4000-0.1414 ( 10091 PWs)   bands (ev):

   -48.9281 -48.9277 -48.9273 -48.9268 -23.2525 -23.2454 -23.2422 -23.2417
   -23.2402 -23.2344 -23.1756 -23.1749 -23.1668 -23.1641 -23.1593 -23.1567
   -22.0899 -22.0867 -22.0851 -22.0831  -6.8853  -6.8532  -6.4027  -6.2735
    -5.9828  -5.9450  -5.7861  -5.7386  -5.7100  -5.6941  -5.4573  -5.4072
    -4.1335  -4.1069  -4.0988  -4.0682  -4.0643  -4.0000  -3.8119  -3.7976
    -3.7873  -3.7595  -3.6897  -3.6735   5.2311   5.2698   5.4244   5.5238
     5.5721   5.5788   5.5934   5.6907   6.8743   7.0316   7.0831   7.1085
     7.2181   7.2762   7.3028   7.4894   7.5824   7.6442   7.6495   7.8031
     8.2168   8.3441   8.5606   8.6053   8.7261   8.7745   8.7952   8.8564
     8.9049   8.9299   8.9527   9.2055   9.2168   9.3368  10.0369  10.1040
    12.1470  12.4067  14.1016  14.1142  14.1267  14.1719  14.2524  14.3862
    14.3990  14.4670  14.8422  15.0005  15.8034  16.1177  16.5895  17.0044
    17.4047  17.4376  17.6740  17.7409  17.9909

     occupation numbers 
     1.0000   1.0000   1.0000   1.0000   1.0000   1.0000   1.0000   1.0000
     1.0000   1.0000   1.0000   1.0000   1.0000   1.0000   1.0000   1.0000
     1.0000   1.0000   1.0000   1.0000   1.0000   1.0000   1.0000   1.0000
     1.0000   1.0000   1.0000   1.0000   1.0000   1.0000   1.0000   1.0000
     1.0000   1.0000   1.0000   1.0000   1.0000   1.0000   1.0000   1.0000
     1.0000   1.0000   1.0000   1.0000   1.0000   1.0000   1.0000   1.0000
     1.0000   1.0000   1.0000   1.0000   1.0000   1.0000   1.0000   1.0000
     1.0000   1.0000   1.0000   1.0000   1.0000   1.0000   1.0000   1.0000
     1.0000   1.0000   1.0000   1.0000   1.0000   1.0000   1.0000   1.0000
     1.0000   1.0000   1.0000   1.0000   1.0000   1.0000   1.0000   1.0000
     1.0000   1.0000   0.0000   0.0000   0.0000   0.0000   0.0000   0.0000
     0.0000   0.0000   0.0000   0.0000   0.0000   0.0000   0.0000   0.0000
     0.0000   0.0000   0.0000   0.0000   0.0000

          k = 0.4000 0.4000-0.2828 ( 10112 PWs)   bands (ev):

   -48.9277 -48.9276 -48.9276 -48.9273 -23.2491 -23.2451 -23.2419 -23.2380
   -23.2216 -23.2204 -23.1963 -23.1953 -23.1660 -23.1650 -23.1585 -23.1575
   -22.0884 -22.0865 -22.0856 -22.0842  -6.7342  -6.6882  -6.5486  -6.4716
    -5.9081  -5.8661  -5.8260  -5.7792  -5.6656  -5.6120  -5.5641  -5.5019
    -4.1429  -4.1243  -4.0938  -4.0775  -3.9765  -3.9224  -3.8692  -3.8505
    -3.7731  -3.7561  -3.7261  -3.7255   5.2568   5.2649   5.5050   5.5167
     5.8931   5.9420   6.2360   6.2609   6.3621   6.4581   7.0453   7.0827
     7.0893   7.1313   7.2337   7.3491   7.4495   7.4629   7.4818   7.6556
     8.3460   8.4049   8.4709   8.5465   8.6995   8.7777   8.7896   8.8746
     8.8864   8.9526   9.0426   9.0763   9.3717   9.3887   9.8155   9.8419
    12.8252  12.9947  13.5666  13.6766  14.1421  14.1498  14.2388  14.3907
    14.4541  14.4941  14.5465  14.7296  16.2471  16.4968  16.6660  16.9496
    17.6733  17.8934  17.9341  17.9787  18.0408

     occupation numbers 
     1.0000   1.0000   1.0000   1.0000   1.0000   1.0000   1.0000   1.0000
     1.0000   1.0000   1.0000   1.0000   1.0000   1.0000   1.0000   1.0000
     1.0000   1.0000   1.0000   1.0000   1.0000   1.0000   1.0000   1.0000
     1.0000   1.0000   1.0000   1.0000   1.0000   1.0000   1.0000   1.0000
     1.0000   1.0000   1.0000   1.0000   1.0000   1.0000   1.0000   1.0000
     1.0000   1.0000   1.0000   1.0000   1.0000   1.0000   1.0000   1.0000
     1.0000   1.0000   1.0000   1.0000   1.0000   1.0000   1.0000   1.0000
     1.0000   1.0000   1.0000   1.0000   1.0000   1.0000   1.0000   1.0000
     1.0000   1.0000   1.0000   1.0000   1.0000   1.0000   1.0000   1.0000
     1.0000   1.0000   1.0000   1.0000   1.0000   1.0000   1.0000   1.0000
     1.0000   1.0000   0.9130   0.0458   0.0000   0.0000   0.0000   0.0000
     0.0000   0.0000   0.0000   0.0000   0.0000   0.0000   0.0000   0.0000
     0.0000   0.0000   0.0000   0.0000   0.0000

     the Fermi energy is    13.6146 ev

!    total energy              =   -2923.82743974 Ry
     total all-electron energy =    -59563.354141 Ry
     estimated scf accuracy    <          3.0E-10 Ry
     smearing contrib. (-TS)   =      -0.00118338 Ry
     internal energy E=F+TS    =   -2923.82625636 Ry

     The total energy is F=E-TS. E is the sum of the following terms:
     one-electron contribution =    -278.08704664 Ry
     hartree contribution      =     248.16195964 Ry
     xc contribution           =    -239.30496967 Ry
     ewald contribution        =    -936.05791080 Ry
     one-center paw contrib.   =   -1718.53828889 Ry
      -> PAW hartree energy AE =      35.01639801 Ry
      -> PAW hartree energy PS =     -34.81669301 Ry
      -> PAW xc energy AE      =    -201.60238240 Ry
      -> PAW xc energy PS      =      17.13341921 Ry
      -> total E_H with PAW    =     248.36166464 Ry
      -> total E_XC with PAW   =    -423.77393286 Ry

     convergence has been achieved in  22 iterations

     Writing all to output data dir ./out/smo.save/ :
     XML data file, charge density, pseudopotentials, collected wavefunctions

     init_run     :      2.42s CPU      2.71s WALL (       1 calls)
     electrons    :     62.70s CPU     74.35s WALL (       1 calls)

     Called by init_run:
     wfcinit      :      0.86s CPU      0.91s WALL (       1 calls)
     wfcinit:atom :      0.01s CPU      0.01s WALL (       1 calls)
     wfcinit:wfcr :      0.78s CPU      0.79s WALL (       1 calls)
     potinit      :      0.28s CPU      0.34s WALL (       1 calls)
     hinit0       :      1.14s CPU      1.19s WALL (       1 calls)

     Called by electrons:
     c_bands      :     48.74s CPU     58.41s WALL (      22 calls)
     sum_band     :      8.51s CPU      9.25s WALL (      22 calls)
     v_of_rho     :      2.01s CPU      2.08s WALL (      23 calls)
     v_h          :      0.90s CPU      0.94s WALL (      23 calls)
     v_xc         :      1.11s CPU      1.13s WALL (      23 calls)
     newd         :      0.78s CPU      0.95s WALL (      23 calls)
     PAW_pot      :      0.65s CPU      1.04s WALL (      23 calls)
     mix_rho      :      0.62s CPU      0.67s WALL (      22 calls)

     Called by c_bands:
     init_us_2    :      0.79s CPU      0.82s WALL (      45 calls)
     cegterg      :     45.26s CPU     45.66s WALL (      22 calls)

     Called by sum_band:
     sum_band:wei :      0.04s CPU      0.10s WALL (      22 calls)
     sum_band:loo :      5.85s CPU      5.89s WALL (      22 calls)
     sum_band:buf :      0.00s CPU      0.00s WALL (      22 calls)
     sum_band:ini :      0.41s CPU      0.43s WALL (      22 calls)
     sum_band:cal :      1.26s CPU      1.26s WALL (      22 calls)
     sum_band:bec :      0.00s CPU      0.00s WALL (      22 calls)
     addusdens    :      0.80s CPU      0.98s WALL (      22 calls)
                                        0.00s GPU  (      22 calls)
     addusd:skk   :      0.01s CPU      0.01s WALL (      66 calls)
                                        0.00s GPU  (      66 calls)

     Called by *egterg:
     cdiaghg      :      1.62s CPU      1.63s WALL (     135 calls)
     cegterg:over :      3.60s CPU      3.61s WALL (     113 calls)
     cegterg:upda :      2.35s CPU      2.40s WALL (     113 calls)
     cegterg:last :      4.91s CPU      4.92s WALL (      45 calls)
     h_psi        :     28.29s CPU     28.51s WALL (     136 calls)
     s_psi        :      3.65s CPU      3.66s WALL (     136 calls)
     g_psi        :      0.09s CPU      0.09s WALL (     113 calls)

     Called by h_psi:
     h_psi:calbec :      3.41s CPU      3.42s WALL (     136 calls)
     vloc_psi     :     21.01s CPU     21.09s WALL (     136 calls)
                                        0.00s GPU  (     136 calls)
     add_vuspsi   :      3.75s CPU      3.76s WALL (     136 calls)

     General routines
     calbec       :      4.66s CPU      4.68s WALL (     158 calls)
     fft          :      1.45s CPU      1.48s WALL (     136 calls)
     ffts         :      0.09s CPU      0.10s WALL (      45 calls)
     fftw         :     23.22s CPU     23.30s WALL (   13364 calls)
     interpolate  :      0.58s CPU      0.60s WALL (      23 calls)

     Parallel routines

     PAW routines
     PAW_pot      :      0.65s CPU      1.04s WALL (      23 calls)
     PAW_symme    :      0.02s CPU      0.03s WALL (      45 calls)

     PWSCF        :   1m 5.51s CPU   1m19.98s WALL


   This run was terminated on:  20:36:10  29Nov2025            

=------------------------------------------------------------------------------=
   JOB DONE.
=------------------------------------------------------------------------------=
