
             +---------------------------------------------------+
             |                                                   |
             |                   WANNIER90                       |
             |                                                   |
             +---------------------------------------------------+
             |                                                   |
             |        Welcome to the Maximally-Localized         |
             |        Generalized Wannier Functions code         |
             |            http://www.wannier.org                 |
             |                                                   |
             |                                                   |
             |  Wannier90 Developer Group:                       |
             |    Giovanni Pizzi    (Paul Scherrer Institute)    |
             |    Valerio Vitale    (University of Trieste)      |
             |    David Vanderbilt  (Rutgers University)         |
             |    Nicola Marzari    (EPFL)                       |
             |    Ivo Souza         (Universidad del Pais Vasco) |
             |    Arash A. Mostofi  (Imperial College London)    |
             |    Jonathan R. Yates (University of Oxford)       |
             |                                                   |
             |  For the full list of Wannier90 3.x authors,      |
             |  please check the code documentation and the      |
             |  README on the GitHub page of the code            |
             |                                                   |
             |                                                   |
             |  Please cite                                      |
             |                                                   |
             |  [ref] "Wannier90 as a community code:            |
             |        new features and applications",            |
             |        G. Pizzi et al., J. Phys. Cond. Matt. 32,  |
             |        165902 (2020).                             |
             |        http://doi.org/10.1088/1361-648X/ab51ff    |
             |                                                   |
             |  in any publications arising from the use of      |
             |  this code. For the method please cite            |
             |                                                   |
             |  [ref] "Maximally Localized Generalised Wannier   |
             |         Functions for Composite Energy Bands"     |
             |         N. Marzari and D. Vanderbilt              |
             |         Phys. Rev. B 56 12847 (1997)              |
             |                                                   |
             |  [ref] "Maximally Localized Wannier Functions     |
             |         for Entangled Energy Bands"               |
             |         I. Souza, N. Marzari and D. Vanderbilt    |
             |         Phys. Rev. B 65 035109 (2001)             |
             |                                                   |
             |                                                   |
             | Copyright (c) 1996-2020                           |
             |        The Wannier90 Developer Group and          |
             |        individual contributors                    |
             |                                                   |
             |      Release: 3.1.0        5th March    2020      |
             |                                                   |
             | This program is free software; you can            |
             | redistribute it and/or modify it under the terms  |
             | of the GNU General Public License as published by |
             | the Free Software Foundation; either version 2 of |
             | the License, or (at your option) any later version|
             |                                                   |
             | This program is distributed in the hope that it   |
             | will be useful, but WITHOUT ANY WARRANTY; without |
             | even the implied warranty of MERCHANTABILITY or   |
             | FITNESS FOR A PARTICULAR PURPOSE. See the GNU     |
             | General Public License for more details.          |
             |                                                   |
             | You should have received a copy of the GNU General|
             | Public License along with this program; if not,   |
             | write to the Free Software Foundation, Inc.,      |
             | 675 Mass Ave, Cambridge, MA 02139, USA.           |
             |                                                   |
             +---------------------------------------------------+
             |    Execution started on 29Nov2025 at 20:40:46     |
             +---------------------------------------------------+
 
 ******************************************************************************
 * -> Using CODATA 2006 constant values                                       *
 *    (http://physics.nist.gov/cuu/Constants/index.html)                      *
 * -> Using Bohr value from CODATA                                            *
 ******************************************************************************

 Running in parallel on 128 CPUs

                                    ------
                                    SYSTEM
                                    ------

                              Lattice Vectors (Ang)
                    a_1     5.613960   0.000000   0.000000
                    a_2     0.000000   5.613960   0.000000
                    a_3     0.000000   0.000000   7.939340

                   Unit Cell Volume:     250.22058  (Ang^3)

                        Reciprocal-Space Vectors (Ang^-1)
                    b_1     1.119207   0.000000   0.000000
                    b_2     0.000000   1.119207   0.000000
                    b_3     0.000000   0.000000   0.791399
  
 *----------------------------------------------------------------------------*
 |   Site       Fractional Coordinate          Cartesian Coordinate (Ang)     |
 +----------------------------------------------------------------------------+
 | sr   1   0.00000   0.50000   0.25000   |    0.00000   2.80698   1.98483    |
 | sr   2   0.00000   0.50000   0.75000   |    0.00000   2.80698   5.95450    |
 | sr   3   0.50000   0.00000   0.75000   |    2.80698   0.00000   5.95450    |
 | sr   4   0.50000   0.00000   0.25000   |    2.80698   0.00000   1.98483    |
 | mo   1   0.00000   0.00000   0.00000   |    0.00000   0.00000   0.00000    |
 | mo   2   0.00000   0.00000   0.50000   |    0.00000   0.00000   3.96967    |
 | mo   3   0.50000   0.50000   0.50000   |    2.80698   2.80698   3.96967    |
 | mo   4   0.50000   0.50000   0.00000   |    2.80698   2.80698   0.00000    |
 | o    1   0.25000   0.75000   0.00891   |    1.40349   4.21047   0.07071    |
 | o    2   0.25000   0.25000  -0.00891   |    1.40349   1.40349  -0.07071    |
 | o    3   0.75000   0.25000   0.50891   |    4.21047   1.40349   4.04038    |
 | o    4   0.75000   0.75000   0.49109   |    4.21047   4.21047   3.89896    |
 | o    5   0.75000   0.25000  -0.00891   |    4.21047   1.40349  -0.07071    |
 | o    6   0.75000   0.75000   0.00891   |    4.21047   4.21047   0.07071    |
 | o    7   0.25000   0.75000   0.49109   |    1.40349   4.21047   3.89896    |
 | o    8   0.25000   0.25000   0.50891   |    1.40349   1.40349   4.04038    |
 | o    9   0.00000   0.01781   0.25000   |    0.00000   0.10000   1.98483    |
 | o   10   0.00000  -0.01781   0.75000   |    0.00000  -0.10000   5.95450    |
 | o   11   0.50000   0.51781   0.75000   |    2.80698   2.90698   5.95450    |
 | o   12   0.50000   0.48219   0.25000   |    2.80698   2.70698   1.98483    |
 *----------------------------------------------------------------------------*
                                -----------
                                PROJECTIONS
                                -----------
  
 +----------------------------------------------------------------------------+
 |     Frac. Coord.   l mr  r        z-axis               x-axis          Z/a |
 +----------------------------------------------------------------------------+
 |  0.00  0.00  0.00  2  2  1  0.000  0.000  1.000  0.707  0.707  0.000   1.0 |
 |  0.00  0.00  0.00  2  3  1  0.000  0.000  1.000  0.707  0.707  0.000   1.0 |
 |  0.00  0.00  0.00  2  5  1  0.000  0.000  1.000  0.707  0.707  0.000   1.0 |
 |  0.00  0.00  0.50  2  2  1  0.000  0.000  1.000  0.707  0.707  0.000   1.0 |
 |  0.00  0.00  0.50  2  3  1  0.000  0.000  1.000  0.707  0.707  0.000   1.0 |
 |  0.00  0.00  0.50  2  5  1  0.000  0.000  1.000  0.707  0.707  0.000   1.0 |
 |  0.50  0.50  0.50  2  2  1  0.000  0.000  1.000  0.707  0.707  0.000   1.0 |
 |  0.50  0.50  0.50  2  3  1  0.000  0.000  1.000  0.707  0.707  0.000   1.0 |
 |  0.50  0.50  0.50  2  5  1  0.000  0.000  1.000  0.707  0.707  0.000   1.0 |
 |  0.50  0.50  0.00  2  2  1  0.000  0.000  1.000  0.707  0.707  0.000   1.0 |
 |  0.50  0.50  0.00  2  3  1  0.000  0.000  1.000  0.707  0.707  0.000   1.0 |
 |  0.50  0.50  0.00  2  5  1  0.000  0.000  1.000  0.707  0.707  0.000   1.0 |
 |  0.00  0.00  0.00  2  1  1  0.000  0.000  1.000  0.707  0.707  0.000   1.0 |
 |  0.00  0.00  0.00  2  4  1  0.000  0.000  1.000  0.707  0.707  0.000   1.0 |
 |  0.00  0.00  0.50  2  1  1  0.000  0.000  1.000  0.707  0.707  0.000   1.0 |
 |  0.00  0.00  0.50  2  4  1  0.000  0.000  1.000  0.707  0.707  0.000   1.0 |
 |  0.50  0.50  0.50  2  1  1  0.000  0.000  1.000  0.707  0.707  0.000   1.0 |
 |  0.50  0.50  0.50  2  4  1  0.000  0.000  1.000  0.707  0.707  0.000   1.0 |
 |  0.50  0.50  0.00  2  1  1  0.000  0.000  1.000  0.707  0.707  0.000   1.0 |
 |  0.50  0.50  0.00  2  4  1  0.000  0.000  1.000  0.707  0.707  0.000   1.0 |
 |  0.25  0.75  0.01  1  1  1  0.000  0.000  1.000  1.000  0.000  0.000   1.0 |
 |  0.25  0.75  0.01  1  2  1  0.000  0.000  1.000  1.000  0.000  0.000   1.0 |
 |  0.25  0.75  0.01  1  3  1  0.000  0.000  1.000  1.000  0.000  0.000   1.0 |
 |  0.25  0.25 -0.01  1  1  1  0.000  0.000  1.000  1.000  0.000  0.000   1.0 |
 |  0.25  0.25 -0.01  1  2  1  0.000  0.000  1.000  1.000  0.000  0.000   1.0 |
 |  0.25  0.25 -0.01  1  3  1  0.000  0.000  1.000  1.000  0.000  0.000   1.0 |
 |  0.75  0.25  0.51  1  1  1  0.000  0.000  1.000  1.000  0.000  0.000   1.0 |
 |  0.75  0.25  0.51  1  2  1  0.000  0.000  1.000  1.000  0.000  0.000   1.0 |
 |  0.75  0.25  0.51  1  3  1  0.000  0.000  1.000  1.000  0.000  0.000   1.0 |
 |  0.75  0.75  0.49  1  1  1  0.000  0.000  1.000  1.000  0.000  0.000   1.0 |
 |  0.75  0.75  0.49  1  2  1  0.000  0.000  1.000  1.000  0.000  0.000   1.0 |
 |  0.75  0.75  0.49  1  3  1  0.000  0.000  1.000  1.000  0.000  0.000   1.0 |
 |  0.75  0.25 -0.01  1  1  1  0.000  0.000  1.000  1.000  0.000  0.000   1.0 |
 |  0.75  0.25 -0.01  1  2  1  0.000  0.000  1.000  1.000  0.000  0.000   1.0 |
 |  0.75  0.25 -0.01  1  3  1  0.000  0.000  1.000  1.000  0.000  0.000   1.0 |
 |  0.75  0.75  0.01  1  1  1  0.000  0.000  1.000  1.000  0.000  0.000   1.0 |
 |  0.75  0.75  0.01  1  2  1  0.000  0.000  1.000  1.000  0.000  0.000   1.0 |
 |  0.75  0.75  0.01  1  3  1  0.000  0.000  1.000  1.000  0.000  0.000   1.0 |
 |  0.25  0.75  0.49  1  1  1  0.000  0.000  1.000  1.000  0.000  0.000   1.0 |
 |  0.25  0.75  0.49  1  2  1  0.000  0.000  1.000  1.000  0.000  0.000   1.0 |
 |  0.25  0.75  0.49  1  3  1  0.000  0.000  1.000  1.000  0.000  0.000   1.0 |
 |  0.25  0.25  0.51  1  1  1  0.000  0.000  1.000  1.000  0.000  0.000   1.0 |
 |  0.25  0.25  0.51  1  2  1  0.000  0.000  1.000  1.000  0.000  0.000   1.0 |
 |  0.25  0.25  0.51  1  3  1  0.000  0.000  1.000  1.000  0.000  0.000   1.0 |
 |  0.00  0.02  0.25  1  1  1  0.000  0.000  1.000  1.000  0.000  0.000   1.0 |
 |  0.00  0.02  0.25  1  2  1  0.000  0.000  1.000  1.000  0.000  0.000   1.0 |
 |  0.00  0.02  0.25  1  3  1  0.000  0.000  1.000  1.000  0.000  0.000   1.0 |
 |  0.00 -0.02  0.75  1  1  1  0.000  0.000  1.000  1.000  0.000  0.000   1.0 |
 |  0.00 -0.02  0.75  1  2  1  0.000  0.000  1.000  1.000  0.000  0.000   1.0 |
 |  0.00 -0.02  0.75  1  3  1  0.000  0.000  1.000  1.000  0.000  0.000   1.0 |
 |  0.50  0.52  0.75  1  1  1  0.000  0.000  1.000  1.000  0.000  0.000   1.0 |
 |  0.50  0.52  0.75  1  2  1  0.000  0.000  1.000  1.000  0.000  0.000   1.0 |
 |  0.50  0.52  0.75  1  3  1  0.000  0.000  1.000  1.000  0.000  0.000   1.0 |
 |  0.50  0.48  0.25  1  1  1  0.000  0.000  1.000  1.000  0.000  0.000   1.0 |
 |  0.50  0.48  0.25  1  2  1  0.000  0.000  1.000  1.000  0.000  0.000   1.0 |
 |  0.50  0.48  0.25  1  3  1  0.000  0.000  1.000  1.000  0.000  0.000   1.0 |
 +----------------------------------------------------------------------------+
  
                                ------------
                                K-POINT GRID
                                ------------
  
             Grid size =  5 x  5 x  5      Total points =  125
  
 *----------------------------------------------------------------------------*
 | k-point      Fractional Coordinate        Cartesian Coordinate (Ang^-1)    |
 +----------------------------------------------------------------------------+
 |     1    0.00000   0.00000   0.00000   |    0.00000   0.00000   0.00000    |
 |     2    0.00000   0.00000   0.20000   |    0.00000   0.00000   0.15828    |
 |     3    0.00000   0.00000   0.40000   |    0.00000   0.00000   0.31656    |
 |     4    0.00000   0.00000   0.60000   |    0.00000   0.00000   0.47484    |
 |     5    0.00000   0.00000   0.80000   |    0.00000   0.00000   0.63312    |
 |     6    0.00000   0.20000   0.00000   |    0.00000   0.22384   0.00000    |
 |     7    0.00000   0.20000   0.20000   |    0.00000   0.22384   0.15828    |
 |     8    0.00000   0.20000   0.40000   |    0.00000   0.22384   0.31656    |
 |     9    0.00000   0.20000   0.60000   |    0.00000   0.22384   0.47484    |
 |    10    0.00000   0.20000   0.80000   |    0.00000   0.22384   0.63312    |
 |    11    0.00000   0.40000   0.00000   |    0.00000   0.44768   0.00000    |
 |    12    0.00000   0.40000   0.20000   |    0.00000   0.44768   0.15828    |
 |    13    0.00000   0.40000   0.40000   |    0.00000   0.44768   0.31656    |
 |    14    0.00000   0.40000   0.60000   |    0.00000   0.44768   0.47484    |
 |    15    0.00000   0.40000   0.80000   |    0.00000   0.44768   0.63312    |
 |    16    0.00000   0.60000   0.00000   |    0.00000   0.67152   0.00000    |
 |    17    0.00000   0.60000   0.20000   |    0.00000   0.67152   0.15828    |
 |    18    0.00000   0.60000   0.40000   |    0.00000   0.67152   0.31656    |
 |    19    0.00000   0.60000   0.60000   |    0.00000   0.67152   0.47484    |
 |    20    0.00000   0.60000   0.80000   |    0.00000   0.67152   0.63312    |
 |    21    0.00000   0.80000   0.00000   |    0.00000   0.89537   0.00000    |
 |    22    0.00000   0.80000   0.20000   |    0.00000   0.89537   0.15828    |
 |    23    0.00000   0.80000   0.40000   |    0.00000   0.89537   0.31656    |
 |    24    0.00000   0.80000   0.60000   |    0.00000   0.89537   0.47484    |
 |    25    0.00000   0.80000   0.80000   |    0.00000   0.89537   0.63312    |
 |    26    0.20000   0.00000   0.00000   |    0.22384   0.00000   0.00000    |
 |    27    0.20000   0.00000   0.20000   |    0.22384   0.00000   0.15828    |
 |    28    0.20000   0.00000   0.40000   |    0.22384   0.00000   0.31656    |
 |    29    0.20000   0.00000   0.60000   |    0.22384   0.00000   0.47484    |
 |    30    0.20000   0.00000   0.80000   |    0.22384   0.00000   0.63312    |
 |    31    0.20000   0.20000   0.00000   |    0.22384   0.22384   0.00000    |
 |    32    0.20000   0.20000   0.20000   |    0.22384   0.22384   0.15828    |
 |    33    0.20000   0.20000   0.40000   |    0.22384   0.22384   0.31656    |
 |    34    0.20000   0.20000   0.60000   |    0.22384   0.22384   0.47484    |
 |    35    0.20000   0.20000   0.80000   |    0.22384   0.22384   0.63312    |
 |    36    0.20000   0.40000   0.00000   |    0.22384   0.44768   0.00000    |
 |    37    0.20000   0.40000   0.20000   |    0.22384   0.44768   0.15828    |
 |    38    0.20000   0.40000   0.40000   |    0.22384   0.44768   0.31656    |
 |    39    0.20000   0.40000   0.60000   |    0.22384   0.44768   0.47484    |
 |    40    0.20000   0.40000   0.80000   |    0.22384   0.44768   0.63312    |
 |    41    0.20000   0.60000   0.00000   |    0.22384   0.67152   0.00000    |
 |    42    0.20000   0.60000   0.20000   |    0.22384   0.67152   0.15828    |
 |    43    0.20000   0.60000   0.40000   |    0.22384   0.67152   0.31656    |
 |    44    0.20000   0.60000   0.60000   |    0.22384   0.67152   0.47484    |
 |    45    0.20000   0.60000   0.80000   |    0.22384   0.67152   0.63312    |
 |    46    0.20000   0.80000   0.00000   |    0.22384   0.89537   0.00000    |
 |    47    0.20000   0.80000   0.20000   |    0.22384   0.89537   0.15828    |
 |    48    0.20000   0.80000   0.40000   |    0.22384   0.89537   0.31656    |
 |    49    0.20000   0.80000   0.60000   |    0.22384   0.89537   0.47484    |
 |    50    0.20000   0.80000   0.80000   |    0.22384   0.89537   0.63312    |
 |    51    0.40000   0.00000   0.00000   |    0.44768   0.00000   0.00000    |
 |    52    0.40000   0.00000   0.20000   |    0.44768   0.00000   0.15828    |
 |    53    0.40000   0.00000   0.40000   |    0.44768   0.00000   0.31656    |
 |    54    0.40000   0.00000   0.60000   |    0.44768   0.00000   0.47484    |
 |    55    0.40000   0.00000   0.80000   |    0.44768   0.00000   0.63312    |
 |    56    0.40000   0.20000   0.00000   |    0.44768   0.22384   0.00000    |
 |    57    0.40000   0.20000   0.20000   |    0.44768   0.22384   0.15828    |
 |    58    0.40000   0.20000   0.40000   |    0.44768   0.22384   0.31656    |
 |    59    0.40000   0.20000   0.60000   |    0.44768   0.22384   0.47484    |
 |    60    0.40000   0.20000   0.80000   |    0.44768   0.22384   0.63312    |
 |    61    0.40000   0.40000   0.00000   |    0.44768   0.44768   0.00000    |
 |    62    0.40000   0.40000   0.20000   |    0.44768   0.44768   0.15828    |
 |    63    0.40000   0.40000   0.40000   |    0.44768   0.44768   0.31656    |
 |    64    0.40000   0.40000   0.60000   |    0.44768   0.44768   0.47484    |
 |    65    0.40000   0.40000   0.80000   |    0.44768   0.44768   0.63312    |
 |    66    0.40000   0.60000   0.00000   |    0.44768   0.67152   0.00000    |
 |    67    0.40000   0.60000   0.20000   |    0.44768   0.67152   0.15828    |
 |    68    0.40000   0.60000   0.40000   |    0.44768   0.67152   0.31656    |
 |    69    0.40000   0.60000   0.60000   |    0.44768   0.67152   0.47484    |
 |    70    0.40000   0.60000   0.80000   |    0.44768   0.67152   0.63312    |
 |    71    0.40000   0.80000   0.00000   |    0.44768   0.89537   0.00000    |
 |    72    0.40000   0.80000   0.20000   |    0.44768   0.89537   0.15828    |
 |    73    0.40000   0.80000   0.40000   |    0.44768   0.89537   0.31656    |
 |    74    0.40000   0.80000   0.60000   |    0.44768   0.89537   0.47484    |
 |    75    0.40000   0.80000   0.80000   |    0.44768   0.89537   0.63312    |
 |    76    0.60000   0.00000   0.00000   |    0.67152   0.00000   0.00000    |
 |    77    0.60000   0.00000   0.20000   |    0.67152   0.00000   0.15828    |
 |    78    0.60000   0.00000   0.40000   |    0.67152   0.00000   0.31656    |
 |    79    0.60000   0.00000   0.60000   |    0.67152   0.00000   0.47484    |
 |    80    0.60000   0.00000   0.80000   |    0.67152   0.00000   0.63312    |
 |    81    0.60000   0.20000   0.00000   |    0.67152   0.22384   0.00000    |
 |    82    0.60000   0.20000   0.20000   |    0.67152   0.22384   0.15828    |
 |    83    0.60000   0.20000   0.40000   |    0.67152   0.22384   0.31656    |
 |    84    0.60000   0.20000   0.60000   |    0.67152   0.22384   0.47484    |
 |    85    0.60000   0.20000   0.80000   |    0.67152   0.22384   0.63312    |
 |    86    0.60000   0.40000   0.00000   |    0.67152   0.44768   0.00000    |
 |    87    0.60000   0.40000   0.20000   |    0.67152   0.44768   0.15828    |
 |    88    0.60000   0.40000   0.40000   |    0.67152   0.44768   0.31656    |
 |    89    0.60000   0.40000   0.60000   |    0.67152   0.44768   0.47484    |
 |    90    0.60000   0.40000   0.80000   |    0.67152   0.44768   0.63312    |
 |    91    0.60000   0.60000   0.00000   |    0.67152   0.67152   0.00000    |
 |    92    0.60000   0.60000   0.20000   |    0.67152   0.67152   0.15828    |
 |    93    0.60000   0.60000   0.40000   |    0.67152   0.67152   0.31656    |
 |    94    0.60000   0.60000   0.60000   |    0.67152   0.67152   0.47484    |
 |    95    0.60000   0.60000   0.80000   |    0.67152   0.67152   0.63312    |
 |    96    0.60000   0.80000   0.00000   |    0.67152   0.89537   0.00000    |
 |    97    0.60000   0.80000   0.20000   |    0.67152   0.89537   0.15828    |
 |    98    0.60000   0.80000   0.40000   |    0.67152   0.89537   0.31656    |
 |    99    0.60000   0.80000   0.60000   |    0.67152   0.89537   0.47484    |
 |   100    0.60000   0.80000   0.80000   |    0.67152   0.89537   0.63312    |
 |   101    0.80000   0.00000   0.00000   |    0.89537   0.00000   0.00000    |
 |   102    0.80000   0.00000   0.20000   |    0.89537   0.00000   0.15828    |
 |   103    0.80000   0.00000   0.40000   |    0.89537   0.00000   0.31656    |
 |   104    0.80000   0.00000   0.60000   |    0.89537   0.00000   0.47484    |
 |   105    0.80000   0.00000   0.80000   |    0.89537   0.00000   0.63312    |
 |   106    0.80000   0.20000   0.00000   |    0.89537   0.22384   0.00000    |
 |   107    0.80000   0.20000   0.20000   |    0.89537   0.22384   0.15828    |
 |   108    0.80000   0.20000   0.40000   |    0.89537   0.22384   0.31656    |
 |   109    0.80000   0.20000   0.60000   |    0.89537   0.22384   0.47484    |
 |   110    0.80000   0.20000   0.80000   |    0.89537   0.22384   0.63312    |
 |   111    0.80000   0.40000   0.00000   |    0.89537   0.44768   0.00000    |
 |   112    0.80000   0.40000   0.20000   |    0.89537   0.44768   0.15828    |
 |   113    0.80000   0.40000   0.40000   |    0.89537   0.44768   0.31656    |
 |   114    0.80000   0.40000   0.60000   |    0.89537   0.44768   0.47484    |
 |   115    0.80000   0.40000   0.80000   |    0.89537   0.44768   0.63312    |
 |   116    0.80000   0.60000   0.00000   |    0.89537   0.67152   0.00000    |
 |   117    0.80000   0.60000   0.20000   |    0.89537   0.67152   0.15828    |
 |   118    0.80000   0.60000   0.40000   |    0.89537   0.67152   0.31656    |
 |   119    0.80000   0.60000   0.60000   |    0.89537   0.67152   0.47484    |
 |   120    0.80000   0.60000   0.80000   |    0.89537   0.67152   0.63312    |
 |   121    0.80000   0.80000   0.00000   |    0.89537   0.89537   0.00000    |
 |   122    0.80000   0.80000   0.20000   |    0.89537   0.89537   0.15828    |
 |   123    0.80000   0.80000   0.40000   |    0.89537   0.89537   0.31656    |
 |   124    0.80000   0.80000   0.60000   |    0.89537   0.89537   0.47484    |
 |   125    0.80000   0.80000   0.80000   |    0.89537   0.89537   0.63312    |
 *----------------------------------------------------------------------------*
  
  
 *---------------------------------- MAIN ------------------------------------*
 |  Number of Wannier Functions               :                56             |
 |  Number of Objective Wannier Functions     :                56             |
 |  Number of input Bloch states              :                56             |
 |  Output verbosity (1=low, 5=high)          :                 2             |
 |  Timing Level (1=low, 5=high)              :                 1             |
 |  Optimisation (0=memory, 3=speed)          :                 3             |
 |  Length Unit                               :               Ang             |
 |  Post-processing setup (write *.nnkp)      :                 F             |
 |  Using Gamma-only branch of algorithms     :                 F             |
 *----------------------------------------------------------------------------*
 *------------------------------- WANNIERISE ---------------------------------*
 |  Total number of iterations                :             10000             |
 |  Number of CG steps before reset           :                 5             |
 |  Trial step length for line search         :             2.000             |
 |  Convergence tolerence                     :         0.100E-11             |
 |  Convergence window                        :                 5             |
 |  Iterations between writing output         :               200             |
 |  Iterations between backing up to disk     :               100             |
 |  Write r^2_nm to file                      :                 F             |
 |  Write xyz WF centres to file              :                 F             |
 |  Write on-site energies <0n|H|0n> to file  :                 F             |
 |  Use guiding centre to control phases      :                 F             |
 |  Use phases for initial projections        :                 F             |
 *----------------------------------------------------------------------------*
 *-------------------------------- PLOTTING ----------------------------------*
 |  Plotting interpolated bandstructure       :                 T             |
 |   Number of K-path sections                :                 7             |
 |   Divisions along first K-path section     :               100             |
 |   Output format                            :           gnuplot             |
 |   Output mode                              :               s-k             |
 *----------------------------------------------------------------------------*
 |   K-space path sections:                                                   |
 |    From: G       0.000  0.000  0.000     To: X       0.000  0.500  0.000   |
 |    From: X       0.000  0.500  0.000     To: M       0.500  0.500  0.000   |
 |    From: M       0.500  0.500  0.000     To: G       0.000  0.000  0.000   |
 |    From: G       0.000  0.000  0.000     To: Z       0.000  0.000  0.500   |
 |    From: Z       0.000  0.000  0.500     To: R       0.000  0.500  0.500   |
 |    From: R       0.000  0.500  0.500     To: A       0.500  0.500  0.500   |
 |    From: A       0.500  0.500  0.500     To: Z       0.000  0.000  0.500   |
 *----------------------------------------------------------------------------*
 |  Plotting Hamiltonian in WF basis          :                 T             |
 *----------------------------------------------------------------------------*

 *---------------------------------- K-MESH ----------------------------------*
 +----------------------------------------------------------------------------+
 |                    Distance to Nearest-Neighbour Shells                    |
 |                    ------------------------------------                    |
 |          Shell             Distance (Ang^-1)          Multiplicity         |
 |          -----             -----------------          ------------         |
 |             1                   0.158280                      2            |
 |             2                   0.223841                      4            |
 |             3                   0.274149                      8            |
 |             4                   0.316560                      6            |
 |             5                   0.353924                      8            |
 |             6                   0.387705                      8            |
 |             7                   0.447683                     12            |
 |             8                   0.474839                     10            |
 |             9                   0.500525                      8            |
 |            10                   0.524955                     24            |
 |            11                   0.548297                      8            |
 |            12                   0.570686                      8            |
 |            13                   0.592229                     16            |
 |            14                   0.633119                      6            |
 |            15                   0.652604                     16            |
 |            16                   0.671524                     12            |
 |            17                   0.689926                     24            |
 |            18                   0.707849                     24            |
 |            19                   0.725329                     16            |
 |            20                   0.742398                      8            |
 |            21                   0.775409                     24            |
 |            22                   0.791399                     10            |
 |            23                   0.807072                     24            |
 |            24                   0.822446                     32            |
 |            25                   0.852363                     24            |
 |            26                   0.866934                     16            |
 |            27                   0.895366                     12            |
 |            28                   0.909248                     16            |
 |            29                   0.922922                     16            |
 |            30                   0.936396                     48            |
 |            31                   0.949679                     30            |
 |            32                   0.962779                      8            |
 |            33                   0.975702                     24            |
 |            34                   1.001049                     24            |
 |            35                   1.013485                     32            |
 |            36                   1.025770                     16            |
 +----------------------------------------------------------------------------+
 | The b-vectors are chosen automatically                                     |
 | Shell:  1 w_b   19.9580947      (Ang^2)                                    |
 | Shell:  1 w_b   19.9580947      (Ang^2)                                    |
 | Shell:  2 w_b    9.9790432      (Ang^2)                                    |
 | The following shells are used:   1,  2                 |
 +----------------------------------------------------------------------------+
 |                        Shell   # Nearest-Neighbours                        |
 |                        -----   --------------------                        |
 |                          1               2                                 |
 |                          2               4                                 |
 +----------------------------------------------------------------------------+
 | Completeness relation is fully satisfied [Eq. (B1), PRB 56, 12847 (1997)]  |
 +----------------------------------------------------------------------------+
 |                  b_k Vectors (Ang^-1) and Weights (Ang^2)                  |
 |                  ----------------------------------------                  |
 |            No.         b_k(x)      b_k(y)      b_k(z)        w_b           |
 |            ---        --------------------------------     --------        |
 |             1         0.000000    0.000000    0.158280    19.958095        |
 |             2         0.000000    0.000000   -0.158280    19.958095        |
 |             3         0.000000    0.223841    0.000000     9.979043        |
 |             4         0.223841    0.000000    0.000000     9.979043        |
 |             5         0.000000   -0.223841    0.000000     9.979043        |
 |             6        -0.223841    0.000000    0.000000     9.979043        |
 +----------------------------------------------------------------------------+
 |                           b_k Directions (Ang^-1)                          |
 |                           -----------------------                          |
 |            No.           x           y           z                         |
 |            ---        --------------------------------                     |
 |             1         0.000000    0.000000    0.158280                     |
 |             2         0.000000    0.223841    0.000000                     |
 |             3         0.223841    0.000000    0.000000                     |
 +----------------------------------------------------------------------------+
  
 Starting a new Wannier90 calculation ...


 Reading overlaps from smo.mmn    :  Created on 29Nov2025 at 20:40:15

 Reading projections from smo.amn :  Created on 29Nov2025 at 20:39:56

 *------------------------------- WANNIERISE ---------------------------------*
 +--------------------------------------------------------------------+<-- CONV
 | Iter  Delta Spread     RMS Gradient      Spread (Ang^2)      Time  |<-- CONV
 +--------------------------------------------------------------------+<-- CONV

 ------------------------------------------------------------------------------
 Initial State
  WF centre and spread    1  ( -0.000296, -0.000286,  0.000141 )     1.82026900
  WF centre and spread    2  ( -0.000188,  0.000516, -0.000036 )     1.82651651
  WF centre and spread    3  (  0.000026, -0.000007, -0.000025 )     1.46541969
  WF centre and spread    4  ( -0.000019,  0.000242,  3.969853 )     1.84369926
  WF centre and spread    5  (  0.000105, -0.000490,  3.969608 )     1.83935229
  WF centre and spread    6  ( -0.000030,  0.000017,  3.969672 )     1.46957379
  WF centre and spread    7  (  2.806883,  2.806858,  3.970102 )     1.84427798
  WF centre and spread    8  (  2.807209,  2.806944,  3.970153 )     1.84172471
  WF centre and spread    9  (  2.806934,  2.806982,  3.969728 )     1.46948510
  WF centre and spread   10  (  2.806952,  2.806806,  0.000827 )     1.83370968
  WF centre and spread   11  (  2.807302,  2.806964,  0.000646 )     1.82885389
  WF centre and spread   12  (  2.807002,  2.806961, -0.000032 )     1.46627440
  WF centre and spread   13  ( -0.027085,  0.012247, -0.026093 )    39.39567734
  WF centre and spread   14  (  0.012087,  0.025411,  0.046835 )    39.24983222
  WF centre and spread   15  ( -0.002410, -0.045983,  3.958080 )    40.55351068
  WF centre and spread   16  (  0.038343,  0.006117,  4.048858 )    39.85537114
  WF centre and spread   17  (  2.842198,  2.783042,  4.054637 )    42.25998633
  WF centre and spread   18  (  2.818071,  2.842327,  4.013679 )    39.44206756
  WF centre and spread   19  (  2.810924,  2.801586,  0.150133 )    40.41455251
  WF centre and spread   20  (  2.841771,  2.779624,  0.032037 )    39.25901667
  WF centre and spread   21  (  1.403492,  4.210470,  0.081727 )     1.18130820
  WF centre and spread   22  (  1.406407,  4.213502,  0.078511 )     7.22329044
  WF centre and spread   23  (  1.406375,  4.214448,  0.071934 )     7.23873261
  WF centre and spread   24  (  1.403486,  1.403512, -0.081832 )     1.17738113
  WF centre and spread   25  (  1.400776,  1.399839, -0.068336 )     7.07020621
  WF centre and spread   26  (  1.406608,  1.395480, -0.062172 )     7.11730506
  WF centre and spread   27  (  4.210452,  1.403461,  4.052028 )     1.17859396
  WF centre and spread   28  (  4.213359,  1.401075,  4.052596 )     7.30498920
  WF centre and spread   29  (  4.213772,  1.403870,  4.043082 )     7.30716819
  WF centre and spread   30  (  4.210459,  4.210494,  3.887079 )     1.17406247
  WF centre and spread   31  (  4.208082,  4.212336,  3.901892 )     7.24860179
  WF centre and spread   32  (  4.209530,  4.212908,  3.910209 )     7.28065145
  WF centre and spread   33  (  4.210492,  1.403517, -0.081833 )     1.18708990
  WF centre and spread   34  (  4.212184,  1.411179, -0.079654 )     7.00653588
  WF centre and spread   35  (  4.207030,  1.408798, -0.072037 )     7.03635310
  WF centre and spread   36  (  4.210480,  4.210459,  0.081867 )     1.18208026
  WF centre and spread   37  (  4.211260,  4.205692,  0.088346 )     7.07523792
  WF centre and spread   38  (  4.208372,  4.210445,  0.078738 )     7.09693247
  WF centre and spread   39  (  1.403504,  4.210482,  3.887169 )     1.18376957
  WF centre and spread   40  (  1.407895,  4.208002,  3.898900 )     7.14450185
  WF centre and spread   41  (  1.405260,  4.207688,  3.909165 )     7.13974470
  WF centre and spread   42  (  1.403509,  1.403473,  4.052441 )     1.17918765
  WF centre and spread   43  (  1.402050,  1.408255,  4.046764 )     7.27950556
  WF centre and spread   44  (  1.405551,  1.405543,  4.035224 )     7.25769009
  WF centre and spread   45  ( -0.007810,  0.118389,  1.996852 )    12.77981253
  WF centre and spread   46  (  0.000056,  0.099548,  1.984869 )     1.13733677
  WF centre and spread   47  (  0.000021,  0.123398,  1.984879 )     1.15197960
  WF centre and spread   48  ( -0.003110, -0.123724,  5.935488 )    12.75843384
  WF centre and spread   49  (  0.000029, -0.099614,  5.954514 )     1.13670073
  WF centre and spread   50  (  0.000003, -0.123463,  5.954386 )     1.15240451
  WF centre and spread   51  (  2.812249,  2.932472,  5.964519 )    13.09443472
  WF centre and spread   52  (  2.806966,  2.906579,  5.954532 )     1.13712014
  WF centre and spread   53  (  2.806966,  2.930483,  5.954465 )     1.15187100
  WF centre and spread   54  (  2.808188,  2.674106,  2.037110 )    13.02124070
  WF centre and spread   55  (  2.806969,  2.707406,  1.984856 )     1.13743523
  WF centre and spread   56  (  2.807027,  2.683760,  1.984864 )     1.15393299
  Sum of centres and spreads (112.393717,112.250147,135.501944 )   526.06279317

      0     0.526E+03     0.0000000000      526.0627931681       0.00  <-- CONV
        O_D=      8.6111263 O_OD=    356.1150437 O_TOT=    526.0627932 <-- SPRD
 ------------------------------------------------------------------------------
 Cycle:      1
  WF centre and spread    1  ( -0.000327, -0.000265,  0.000101 )     1.74617853
  WF centre and spread    2  ( -0.000210,  0.000505,  0.000062 )     1.75255295
  WF centre and spread    3  (  0.000041,  0.000024, -0.000018 )     1.43501955
  WF centre and spread    4  ( -0.000062,  0.000139,  3.969831 )     1.77267532
  WF centre and spread    5  (  0.000081, -0.000407,  3.969758 )     1.76552195
  WF centre and spread    6  ( -0.000019,  0.000043,  3.969729 )     1.44300841
  WF centre and spread    7  (  2.806895,  2.806877,  3.970150 )     1.77356035
  WF centre and spread    8  (  2.807233,  2.806896,  3.970387 )     1.77202676
  WF centre and spread    9  (  2.806919,  2.806968,  3.969673 )     1.44329739
  WF centre and spread   10  (  2.806887,  2.806806,  0.000902 )     1.76603615
  WF centre and spread   11  (  2.807282,  2.806954,  0.000740 )     1.75971666
  WF centre and spread   12  (  2.806977,  2.806954, -0.000077 )     1.43631617
  WF centre and spread   13  ( -0.033955,  0.037155, -0.000228 )    38.32787876
  WF centre and spread   14  (  0.000798,  0.028860,  0.052238 )    38.24031202
  WF centre and spread   15  ( -0.007230, -0.040158,  3.957357 )    40.01655127
  WF centre and spread   16  (  0.031433,  0.003056,  4.071827 )    39.34210146
  WF centre and spread   17  (  2.850813,  2.765981,  4.039832 )    40.57185653
  WF centre and spread   18  (  2.819502,  2.838138,  4.030826 )    38.75451346
  WF centre and spread   19  (  2.810893,  2.804390,  0.187546 )    38.45519182
  WF centre and spread   20  (  2.837364,  2.770509,  0.035280 )    38.19606698
  WF centre and spread   21  (  1.403484,  4.210471,  0.082232 )     1.15106835
  WF centre and spread   22  (  1.404958,  4.212829,  0.079562 )     6.40072251
  WF centre and spread   23  (  1.404799,  4.214501,  0.072022 )     6.42197939
  WF centre and spread   24  (  1.403506,  1.403535, -0.082309 )     1.15005449
  WF centre and spread   25  (  1.398414,  1.400709, -0.069581 )     6.24886604
  WF centre and spread   26  (  1.404790,  1.395766, -0.062366 )     6.30203982
  WF centre and spread   27  (  4.210460,  1.403451,  4.052523 )     1.15096709
  WF centre and spread   28  (  4.212791,  1.401219,  4.055126 )     6.55545782
  WF centre and spread   29  (  4.213284,  1.404136,  4.045291 )     6.57964995
  WF centre and spread   30  (  4.210456,  4.210479,  3.886630 )     1.14804028
  WF centre and spread   31  (  4.206562,  4.209992,  3.903742 )     6.50767680
  WF centre and spread   32  (  4.208024,  4.210737,  3.911806 )     6.55458605
  WF centre and spread   33  (  4.210491,  1.403506, -0.082054 )     1.15614997
  WF centre and spread   34  (  4.213871,  1.410484, -0.079927 )     6.20350118
  WF centre and spread   35  (  4.208118,  1.407774, -0.072271 )     6.24144882
  WF centre and spread   36  (  4.210461,  4.210433,  0.082097 )     1.15459237
  WF centre and spread   37  (  4.211803,  4.205567,  0.089663 )     6.27155594
  WF centre and spread   38  (  4.208491,  4.210931,  0.079590 )     6.29607779
  WF centre and spread   39  (  1.403486,  4.210471,  3.886759 )     1.15533775
  WF centre and spread   40  (  1.407809,  4.207649,  3.901316 )     6.42587468
  WF centre and spread   41  (  1.404560,  4.207069,  3.911657 )     6.43492283
  WF centre and spread   42  (  1.403532,  1.403488,  4.052936 )     1.15217633
  WF centre and spread   43  (  1.402684,  1.408353,  4.047737 )     6.53651309
  WF centre and spread   44  (  1.406841,  1.404301,  4.036356 )     6.53536279
  WF centre and spread   45  ( -0.008936,  0.118556,  1.998918 )    11.51641405
  WF centre and spread   46  (  0.000062,  0.099786,  1.984856 )     1.11445406
  WF centre and spread   47  (  0.000032,  0.123803,  1.984863 )     1.12689836
  WF centre and spread   48  ( -0.002305, -0.123177,  5.939821 )    11.43594248
  WF centre and spread   49  (  0.000043, -0.099890,  5.954514 )     1.11413954
  WF centre and spread   50  ( -0.000028, -0.123872,  5.954417 )     1.12703756
  WF centre and spread   51  (  2.812875,  2.937135,  5.966192 )    12.03070549
  WF centre and spread   52  (  2.806935,  2.906820,  5.954565 )     1.11410042
  WF centre and spread   53  (  2.806970,  2.930805,  5.954484 )     1.12762054
  WF centre and spread   54  (  2.807823,  2.671995,  2.037342 )    11.96268761
  WF centre and spread   55  (  2.806948,  2.707140,  1.984827 )     1.11472086
  WF centre and spread   56  (  2.807030,  2.683505,  1.984839 )     1.12982838
  Sum of centres and spreads (112.362441,112.249881,135.624091 )   499.41955397

      1    -0.266E+02    13.5825772552      499.4195539734       0.10  <-- CONV
        O_D=      6.0431096 O_OD=    332.0398213 O_TOT=    499.4195540 <-- SPRD
 Delta: O_D= -0.2568017E+01 O_OD= -0.2407522E+02 O_TOT= -0.2664324E+02 <-- DLTA
 ------------------------------------------------------------------------------
 Cycle:    200
  WF centre and spread    1  (  0.000181,  0.000178, -0.000546 )     1.36478449
  WF centre and spread    2  (  0.000003,  0.000026,  0.000676 )     1.36586806
  WF centre and spread    3  ( -0.000439,  0.000818, -0.000092 )     1.33983602
  WF centre and spread    4  (  0.000032,  0.000088,  3.969103 )     1.36601671
  WF centre and spread    5  (  0.000167, -0.000127,  3.970032 )     1.36956835
  WF centre and spread    6  ( -0.000641,  0.000387,  3.969610 )     1.34481892
  WF centre and spread    7  (  2.806923,  2.806904,  3.969492 )     1.36254150
  WF centre and spread    8  (  2.806996,  2.806964,  3.969898 )     1.35838673
  WF centre and spread    9  (  2.807069,  2.807375,  3.969699 )     1.34133702
  WF centre and spread   10  (  2.807191,  2.807184,  0.000037 )     1.36801583
  WF centre and spread   11  (  2.806966,  2.807145,  0.000025 )     1.36667252
  WF centre and spread   12  (  2.806829,  2.807434, -0.000065 )     1.34028701
  WF centre and spread   13  ( -0.219894,  0.089898,  0.505831 )    21.40242900
  WF centre and spread   14  (  0.310060, -0.130562, -0.085165 )    17.42303425
  WF centre and spread   15  ( -0.401582, -0.135529,  4.477386 )    26.92225351
  WF centre and spread   16  (  0.526704, -0.085940,  3.957169 )    24.24618521
  WF centre and spread   17  (  2.692800,  2.953856,  4.330545 )    33.19842648
  WF centre and spread   18  (  2.641787,  2.881241,  3.963881 )    34.93470483
  WF centre and spread   19  (  2.926575,  2.741238,  0.844548 )    28.81047660
  WF centre and spread   20  (  2.899255,  2.500046, -0.060359 )    19.14165319
  WF centre and spread   21  (  1.403343,  4.210587,  0.087369 )     1.06406816
  WF centre and spread   22  (  1.406711,  4.203982,  0.070145 )     1.38023234
  WF centre and spread   23  (  1.410340,  4.210675,  0.069644 )     1.38798836
  WF centre and spread   24  (  1.403636,  1.403430, -0.083206 )     1.07008527
  WF centre and spread   25  (  1.402096,  1.411136, -0.071572 )     1.38031944
  WF centre and spread   26  (  1.417992,  1.397837, -0.070690 )     1.36854096
  WF centre and spread   27  (  4.210571,  1.403356,  4.054335 )     1.08649047
  WF centre and spread   28  (  4.206673,  1.402557,  4.040913 )     1.31554667
  WF centre and spread   29  (  4.210316,  1.407962,  4.040901 )     1.30540788
  WF centre and spread   30  (  4.210764,  4.210494,  3.886145 )     1.08083990
  WF centre and spread   31  (  4.204170,  4.206584,  3.899068 )     1.29888436
  WF centre and spread   32  (  4.209133,  4.205834,  3.898671 )     1.30565322
  WF centre and spread   33  (  4.210271,  1.403567, -0.079982 )     1.05828167
  WF centre and spread   34  (  4.213582,  1.407298, -0.071651 )     1.36640436
  WF centre and spread   35  (  4.206781,  1.395710, -0.071644 )     1.37209604
  WF centre and spread   36  (  4.210482,  4.210520,  0.084286 )     1.07049058
  WF centre and spread   37  (  4.210645,  4.201359,  0.071555 )     1.37217784
  WF centre and spread   38  (  4.202410,  4.207575,  0.070946 )     1.36752325
  WF centre and spread   39  (  1.403294,  4.210626,  3.888082 )     1.09032719
  WF centre and spread   40  (  1.413682,  4.208814,  3.900049 )     1.29922270
  WF centre and spread   41  (  1.401713,  4.204700,  3.900110 )     1.31044661
  WF centre and spread   42  (  1.403748,  1.403538,  4.054689 )     1.08433778
  WF centre and spread   43  (  1.404703,  1.412225,  4.040351 )     1.31284262
  WF centre and spread   44  (  1.414158,  1.403599,  4.040518 )     1.30873362
  WF centre and spread   45  ( -0.002213,  0.087046,  1.986583 )     1.66968841
  WF centre and spread   46  (  0.002462,  0.099686,  1.984724 )     1.04563589
  WF centre and spread   47  (  0.000266,  0.122461,  1.984433 )     1.05042461
  WF centre and spread   48  ( -0.005081, -0.087214,  5.959990 )     1.66350437
  WF centre and spread   49  (  0.002359, -0.103610,  5.954630 )     1.04426649
  WF centre and spread   50  (  0.000817, -0.126400,  5.954787 )     1.04966460
  WF centre and spread   51  (  2.806211,  2.896050,  5.950339 )     1.68374641
  WF centre and spread   52  (  2.809196,  2.907959,  5.954789 )     1.03623665
  WF centre and spread   53  (  2.807301,  2.929069,  5.954606 )     1.04641775
  WF centre and spread   54  (  2.805000,  2.719045,  2.009342 )     1.65666145
  WF centre and spread   55  (  2.807626,  2.704454,  1.984824 )     1.03415954
  WF centre and spread   56  (  2.806849,  2.681577,  1.984887 )     1.04791607
  Sum of centres and spreads (112.448992,111.832715,137.064670 )   267.45255977

    200    -0.127E-01     3.8593282828      267.4525597659      18.38  <-- CONV
        O_D=      3.0001827 O_OD=    103.1157540 O_TOT=    267.4525598 <-- SPRD
 Delta: O_D= -0.1427358E-02 O_OD= -0.1130004E-01 O_TOT= -0.1272740E-01 <-- DLTA
 ------------------------------------------------------------------------------
 Cycle:    400
  WF centre and spread    1  (  0.000178,  0.000172, -0.000539 )     1.36372598
  WF centre and spread    2  ( -0.000015,  0.000057,  0.000632 )     1.36446452
  WF centre and spread    3  ( -0.000427,  0.000825, -0.000087 )     1.34055591
  WF centre and spread    4  (  0.000028,  0.000065,  3.969153 )     1.36491003
  WF centre and spread    5  (  0.000160, -0.000115,  3.969987 )     1.36884607
  WF centre and spread    6  ( -0.000598,  0.000365,  3.969604 )     1.34521425
  WF centre and spread    7  (  2.806923,  2.806904,  3.969488 )     1.36204391
  WF centre and spread    8  (  2.807025,  2.806935,  3.969877 )     1.35770662
  WF centre and spread    9  (  2.807100,  2.807425,  3.969685 )     1.34187859
  WF centre and spread   10  (  2.807169,  2.807175,  0.000069 )     1.36690812
  WF centre and spread   11  (  2.806962,  2.807144, -0.000000 )     1.36523636
  WF centre and spread   12  (  2.806784,  2.807462, -0.000059 )     1.34105534
  WF centre and spread   13  ( -0.210664,  0.093367,  0.509110 )    21.25707718
  WF centre and spread   14  (  0.303105, -0.140802, -0.083712 )    17.15470949
  WF centre and spread   15  ( -0.419238, -0.171236,  4.520698 )    26.93227259
  WF centre and spread   16  (  0.511523, -0.086418,  3.949985 )    23.03484914
  WF centre and spread   17  (  2.703283,  2.957870,  4.299606 )    33.50490793
  WF centre and spread   18  (  2.649547,  2.876410,  3.971688 )    35.00514091
  WF centre and spread   19  (  2.958647,  2.724127,  0.801864 )    28.76754911
  WF centre and spread   20  (  2.899185,  2.499840, -0.055908 )    18.70386012
  WF centre and spread   21  (  1.403345,  4.210588,  0.086965 )     1.06138652
  WF centre and spread   22  (  1.406667,  4.204347,  0.070104 )     1.36940250
  WF centre and spread   23  (  1.410229,  4.210778,  0.069695 )     1.37693531
  WF centre and spread   24  (  1.403640,  1.403438, -0.082873 )     1.06872299
  WF centre and spread   25  (  1.402361,  1.411146, -0.071524 )     1.37010124
  WF centre and spread   26  (  1.417643,  1.398223, -0.070754 )     1.35671575
  WF centre and spread   27  (  4.210561,  1.403333,  4.053607 )     1.08529985
  WF centre and spread   28  (  4.206717,  1.402981,  4.040730 )     1.30306620
  WF centre and spread   29  (  4.209387,  1.408155,  4.040800 )     1.29337287
  WF centre and spread   30  (  4.210746,  4.210496,  3.886585 )     1.07948073
  WF centre and spread   31  (  4.203625,  4.205773,  3.899072 )     1.28633169
  WF centre and spread   32  (  4.208241,  4.205228,  3.898723 )     1.29369904
  WF centre and spread   33  (  4.210278,  1.403578, -0.080229 )     1.05683117
  WF centre and spread   34  (  4.213570,  1.406639, -0.071557 )     1.35486093
  WF centre and spread   35  (  4.207327,  1.395741, -0.071541 )     1.35900607
  WF centre and spread   36  (  4.210510,  4.210536,  0.084096 )     1.06918648
  WF centre and spread   37  (  4.209927,  4.201396,  0.071303 )     1.35985494
  WF centre and spread   38  (  4.202317,  4.207274,  0.070809 )     1.35360235
  WF centre and spread   39  (  1.403284,  4.210610,  3.888057 )     1.08906772
  WF centre and spread   40  (  1.414690,  4.207448,  3.899964 )     1.28494814
  WF centre and spread   41  (  1.403255,  4.203480,  3.899966 )     1.29820557
  WF centre and spread   42  (  1.403758,  1.403561,  4.054259 )     1.08305492
  WF centre and spread   43  (  1.405232,  1.412628,  4.040210 )     1.29916969
  WF centre and spread   44  (  1.414947,  1.404333,  4.040426 )     1.29627675
  WF centre and spread   45  ( -0.001799,  0.086661,  1.984341 )     1.62544331
  WF centre and spread   46  (  0.002461,  0.099626,  1.984708 )     1.04473586
  WF centre and spread   47  (  0.000127,  0.121942,  1.984456 )     1.04903459
  WF centre and spread   48  ( -0.004341, -0.087257,  5.961310 )     1.61822763
  WF centre and spread   49  (  0.002408, -0.103426,  5.954593 )     1.04281050
  WF centre and spread   50  (  0.000794, -0.126050,  5.954799 )     1.04808088
  WF centre and spread   51  (  2.806235,  2.895612,  5.950072 )     1.64291630
  WF centre and spread   52  (  2.809092,  2.907735,  5.954779 )     1.03602533
  WF centre and spread   53  (  2.807282,  2.928699,  5.954634 )     1.04558436
  WF centre and spread   54  (  2.805231,  2.719332,  2.008269 )     1.60983180
  WF centre and spread   55  (  2.807630,  2.704451,  1.984829 )     1.03358212
  WF centre and spread   56  (  2.806863,  2.681516,  1.984862 )     1.04691795
  Sum of centres and spreads (112.470919,111.768123,137.039686 )   265.33468222

    400    -0.444E-01     3.2394972916      265.3346822161      36.69  <-- CONV
        O_D=      2.9578487 O_OD=    101.0402104 O_TOT=    265.3346822 <-- SPRD
 Delta: O_D= -0.1380840E-01 O_OD= -0.3055581E-01 O_TOT= -0.4436421E-01 <-- DLTA
 ------------------------------------------------------------------------------
 Cycle:    600
  WF centre and spread    1  (  0.000173,  0.000163, -0.000536 )     1.36281958
  WF centre and spread    2  ( -0.000021,  0.000070,  0.000584 )     1.36331563
  WF centre and spread    3  ( -0.000415,  0.000833, -0.000080 )     1.34125669
  WF centre and spread    4  (  0.000025,  0.000047,  3.969205 )     1.36399742
  WF centre and spread    5  (  0.000163, -0.000121,  3.969960 )     1.36820900
  WF centre and spread    6  ( -0.000554,  0.000354,  3.969595 )     1.34564971
  WF centre and spread    7  (  2.806924,  2.806902,  3.969480 )     1.36156215
  WF centre and spread    8  (  2.807045,  2.806913,  3.969846 )     1.35728268
  WF centre and spread    9  (  2.807133,  2.807474,  3.969678 )     1.34239400
  WF centre and spread   10  (  2.807153,  2.807176,  0.000093 )     1.36600994
  WF centre and spread   11  (  2.806957,  2.807141, -0.000024 )     1.36419539
  WF centre and spread   12  (  2.806751,  2.807477, -0.000057 )     1.34182943
  WF centre and spread   13  ( -0.200824,  0.108323,  0.512486 )    21.10811638
  WF centre and spread   14  (  0.295734, -0.152934, -0.082536 )    16.97610032
  WF centre and spread   15  ( -0.433529, -0.206808,  4.546501 )    26.95635709
  WF centre and spread   16  (  0.488303, -0.099983,  3.948068 )    21.79173390
  WF centre and spread   17  (  2.703681,  2.994779,  4.281748 )    33.84143092
  WF centre and spread   18  (  2.636482,  2.869398,  3.955598 )    34.98867603
  WF centre and spread   19  (  2.992975,  2.704296,  0.759424 )    28.72424053
  WF centre and spread   20  (  2.900564,  2.501247, -0.052587 )    18.31878514
  WF centre and spread   21  (  1.403350,  4.210590,  0.086605 )     1.05927114
  WF centre and spread   22  (  1.406628,  4.204615,  0.070079 )     1.36073975
  WF centre and spread   23  (  1.410072,  4.210868,  0.069732 )     1.36824132
  WF centre and spread   24  (  1.403639,  1.403450, -0.082553 )     1.06721480
  WF centre and spread   25  (  1.402551,  1.411126, -0.071444 )     1.36195794
  WF centre and spread   26  (  1.417260,  1.398533, -0.070792 )     1.34760774
  WF centre and spread   27  (  4.210556,  1.403319,  4.052951 )     1.08425541
  WF centre and spread   28  (  4.206740,  1.403474,  4.040574 )     1.29375268
  WF centre and spread   29  (  4.208496,  1.408406,  4.040691 )     1.28412096
  WF centre and spread   30  (  4.210732,  4.210498,  3.886908 )     1.07819402
  WF centre and spread   31  (  4.202991,  4.204874,  3.899087 )     1.27653296
  WF centre and spread   32  (  4.207360,  4.204595,  3.898767 )     1.28373194
  WF centre and spread   33  (  4.210283,  1.403587, -0.080454 )     1.05568692
  WF centre and spread   34  (  4.213617,  1.405930, -0.071482 )     1.34540910
  WF centre and spread   35  (  4.207882,  1.395748, -0.071472 )     1.34844744
  WF centre and spread   36  (  4.210528,  4.210553,  0.083923 )     1.06766951
  WF centre and spread   37  (  4.209334,  4.201472,  0.071115 )     1.35004104
  WF centre and spread   38  (  4.202337,  4.207055,  0.070700 )     1.34263219
  WF centre and spread   39  (  1.403281,  4.210598,  3.888018 )     1.08801162
  WF centre and spread   40  (  1.415698,  4.205985,  3.899871 )     1.27346213
  WF centre and spread   41  (  1.404821,  4.202219,  3.899822 )     1.28840560
  WF centre and spread   42  (  1.403763,  1.403580,  4.053853 )     1.08181019
  WF centre and spread   43  (  1.405839,  1.413176,  4.040119 )     1.28959068
  WF centre and spread   44  (  1.415706,  1.405096,  4.040369 )     1.28728526
  WF centre and spread   45  ( -0.001483,  0.086407,  1.982166 )     1.58987546
  WF centre and spread   46  (  0.002479,  0.099603,  1.984697 )     1.04383224
  WF centre and spread   47  (  0.000022,  0.121500,  1.984485 )     1.04767601
  WF centre and spread   48  ( -0.003724, -0.087325,  5.962517 )     1.58185287
  WF centre and spread   49  (  0.002418, -0.103249,  5.954567 )     1.04139937
  WF centre and spread   50  (  0.000747, -0.125751,  5.954806 )     1.04654215
  WF centre and spread   51  (  2.806269,  2.895291,  5.949669 )     1.60875373
  WF centre and spread   52  (  2.808934,  2.907545,  5.954774 )     1.03586255
  WF centre and spread   53  (  2.807254,  2.928346,  5.954651 )     1.04474599
  WF centre and spread   54  (  2.805394,  2.719552,  2.007393 )     1.57185984
  WF centre and spread   55  (  2.807609,  2.704449,  1.984842 )     1.03309018
  WF centre and spread   56  (  2.806880,  2.681476,  1.984846 )     1.04580811
  Sum of centres and spreads (112.460986,111.729939,136.990851 )   263.35933278

    600     0.283E-01     5.1488897519      263.3593327809      55.06  <-- CONV
        O_D=      2.8266729 O_OD=     99.1960367 O_TOT=    263.3593328 <-- SPRD
 Delta: O_D=  0.2955581E-01 O_OD= -0.1239960E-02 O_TOT=  0.2831585E-01 <-- DLTA
 ------------------------------------------------------------------------------
 Cycle:    800
  WF centre and spread    1  (  0.000164,  0.000146, -0.000537 )     1.36210957
  WF centre and spread    2  ( -0.000029,  0.000079,  0.000517 )     1.36230288
  WF centre and spread    3  ( -0.000392,  0.000839, -0.000072 )     1.34213715
  WF centre and spread    4  (  0.000023,  0.000033,  3.969267 )     1.36328243
  WF centre and spread    5  (  0.000163, -0.000131,  3.969949 )     1.36763913
  WF centre and spread    6  ( -0.000490,  0.000342,  3.969579 )     1.34628613
  WF centre and spread    7  (  2.806919,  2.806886,  3.969459 )     1.36121991
  WF centre and spread    8  (  2.807057,  2.806893,  3.969799 )     1.35706709
  WF centre and spread    9  (  2.807180,  2.807526,  3.969674 )     1.34308765
  WF centre and spread   10  (  2.807130,  2.807169,  0.000124 )     1.36544048
  WF centre and spread   11  (  2.806958,  2.807128, -0.000044 )     1.36339046
  WF centre and spread   12  (  2.806733,  2.807474, -0.000058 )     1.34274950
  WF centre and spread   13  ( -0.191824,  0.117055,  0.517166 )    20.96514926
  WF centre and spread   14  (  0.286093, -0.171648, -0.082637 )    16.85487036
  WF centre and spread   15  ( -0.448627, -0.257070,  4.577656 )    26.97906401
  WF centre and spread   16  (  0.458852, -0.129716,  3.948659 )    20.42325874
  WF centre and spread   17  (  2.710597,  2.953283,  4.257922 )    34.14831251
  WF centre and spread   18  (  2.607875,  2.852645,  3.939743 )    34.97177561
  WF centre and spread   19  (  3.033313,  2.674484,  0.715772 )    28.75943250
  WF centre and spread   20  (  2.902431,  2.505208, -0.051698 )    17.89471809
  WF centre and spread   21  (  1.403359,  4.210596,  0.086188 )     1.05738635
  WF centre and spread   22  (  1.406585,  4.204802,  0.070067 )     1.35247203
  WF centre and spread   23  (  1.409853,  4.210958,  0.069760 )     1.36023837
  WF centre and spread   24  (  1.403633,  1.403461, -0.082164 )     1.06571867
  WF centre and spread   25  (  1.402665,  1.411026, -0.071367 )     1.35451341
  WF centre and spread   26  (  1.416731,  1.398803, -0.070821 )     1.33908455
  WF centre and spread   27  (  4.210553,  1.403314,  4.052207 )     1.08328552
  WF centre and spread   28  (  4.206642,  1.404151,  4.040420 )     1.28668339
  WF centre and spread   29  (  4.207409,  1.408834,  4.040565 )     1.27594230
  WF centre and spread   30  (  4.210722,  4.210508,  3.887197 )     1.07700453
  WF centre and spread   31  (  4.202140,  4.203658,  3.899108 )     1.26845489
  WF centre and spread   32  (  4.206294,  4.203789,  3.898798 )     1.27500872
  WF centre and spread   33  (  4.210285,  1.403594, -0.080725 )     1.05477444
  WF centre and spread   34  (  4.213714,  1.404994, -0.071413 )     1.33598401
  WF centre and spread   35  (  4.208563,  1.395788, -0.071417 )     1.33812691
  WF centre and spread   36  (  4.210539,  4.210579,  0.083763 )     1.06598357
  WF centre and spread   37  (  4.208775,  4.201627,  0.070939 )     1.34091533
  WF centre and spread   38  (  4.202497,  4.206917,  0.070587 )     1.33217497
  WF centre and spread   39  (  1.403277,  4.210591,  3.887945 )     1.08700295
  WF centre and spread   40  (  1.416904,  4.204106,  3.899769 )     1.26397215
  WF centre and spread   41  (  1.406725,  4.200694,  3.899663 )     1.28065048
  WF centre and spread   42  (  1.403764,  1.403600,  4.053406 )     1.08064043
  WF centre and spread   43  (  1.406656,  1.413907,  4.040049 )     1.28277885
  WF centre and spread   44  (  1.416567,  1.406012,  4.040332 )     1.28016618
  WF centre and spread   45  ( -0.001196,  0.086222,  1.979581 )     1.55597701
  WF centre and spread   46  (  0.002507,  0.099613,  1.984687 )     1.04292453
  WF centre and spread   47  ( -0.000068,  0.121054,  1.984520 )     1.04627354
  WF centre and spread   48  ( -0.003098, -0.087421,  5.963956 )     1.54757615
  WF centre and spread   49  (  0.002423, -0.103059,  5.954549 )     1.04008265
  WF centre and spread   50  (  0.000677, -0.125448,  5.954806 )     1.04493954
  WF centre and spread   51  (  2.806320,  2.895020,  5.949036 )     1.57520915
  WF centre and spread   52  (  2.808705,  2.907344,  5.954763 )     1.03576839
  WF centre and spread   53  (  2.807237,  2.927920,  5.954661 )     1.04423527
  WF centre and spread   54  (  2.805534,  2.719745,  2.006461 )     1.53463490
  WF centre and spread   55  (  2.807553,  2.704459,  1.984869 )     1.03273412
  WF centre and spread   56  (  2.806911,  2.681481,  1.984831 )     1.04468093
  Sum of centres and spreads (112.438484,111.551863,136.939818 )   261.35729264

    800    -0.191E-01     4.4270654598      261.3572926440      73.47  <-- CONV
        O_D=      2.6828495 O_OD=     97.3378200 O_TOT=    261.3572926 <-- SPRD
 Delta: O_D= -0.2709315E-02 O_OD= -0.1634900E-01 O_TOT= -0.1905831E-01 <-- DLTA
 ------------------------------------------------------------------------------
 Cycle:   1000
  WF centre and spread    1  (  0.000156,  0.000135, -0.000530 )     1.36183457
  WF centre and spread    2  ( -0.000038,  0.000085,  0.000476 )     1.36184247
  WF centre and spread    3  ( -0.000377,  0.000835, -0.000067 )     1.34265531
  WF centre and spread    4  (  0.000023,  0.000026,  3.969309 )     1.36306788
  WF centre and spread    5  (  0.000157, -0.000132,  3.969945 )     1.36738856
  WF centre and spread    6  ( -0.000448,  0.000334,  3.969572 )     1.34663537
  WF centre and spread    7  (  2.806913,  2.806873,  3.969451 )     1.36117404
  WF centre and spread    8  (  2.807061,  2.806883,  3.969770 )     1.35704286
  WF centre and spread    9  (  2.807208,  2.807556,  3.969674 )     1.34346187
  WF centre and spread   10  (  2.807116,  2.807157,  0.000153 )     1.36534614
  WF centre and spread   11  (  2.806957,  2.807119, -0.000060 )     1.36306092
  WF centre and spread   12  (  2.806728,  2.807463, -0.000062 )     1.34322998
  WF centre and spread   13  ( -0.185896,  0.133666,  0.517661 )    20.89271019
  WF centre and spread   14  (  0.281035, -0.183236, -0.083141 )    16.80170619
  WF centre and spread   15  ( -0.464089, -0.275774,  4.594866 )    26.96772081
  WF centre and spread   16  (  0.433259, -0.143306,  3.949313 )    19.58921578
  WF centre and spread   17  (  2.730927,  2.941092,  4.247025 )    34.34881139
  WF centre and spread   18  (  2.592008,  2.837934,  3.939748 )    34.95221838
  WF centre and spread   19  (  3.056334,  2.664382,  0.678790 )    28.80185293
  WF centre and spread   20  (  2.901316,  2.510649, -0.052180 )    17.63343933
  WF centre and spread   21  (  1.403371,  4.210601,  0.085952 )     1.05664529
  WF centre and spread   22  (  1.406529,  4.204914,  0.070065 )     1.34785764
  WF centre and spread   23  (  1.409683,  4.211020,  0.069780 )     1.35624263
  WF centre and spread   24  (  1.403626,  1.403467, -0.081890 )     1.06532581
  WF centre and spread   25  (  1.402668,  1.410919, -0.071339 )     1.35084973
  WF centre and spread   26  (  1.416355,  1.398897, -0.070825 )     1.33477397
  WF centre and spread   27  (  4.210549,  1.403316,  4.051768 )     1.08287554
  WF centre and spread   28  (  4.206555,  1.404503,  4.040349 )     1.28239572
  WF centre and spread   29  (  4.206798,  1.409074,  4.040513 )     1.27139509
  WF centre and spread   30  (  4.210726,  4.210520,  3.887333 )     1.07660456
  WF centre and spread   31  (  4.201603,  4.202957,  3.899114 )     1.26398443
  WF centre and spread   32  (  4.205664,  4.203341,  3.898809 )     1.27002909
  WF centre and spread   33  (  4.210282,  1.403595, -0.080866 )     1.05457659
  WF centre and spread   34  (  4.213797,  1.404363, -0.071390 )     1.33105676
  WF centre and spread   35  (  4.209023,  1.395811, -0.071415 )     1.33301892
  WF centre and spread   36  (  4.210547,  4.210599,  0.083732 )     1.06552685
  WF centre and spread   37  (  4.208514,  4.201760,  0.070855 )     1.33622468
  WF centre and spread   38  (  4.202643,  4.206897,  0.070531 )     1.32699998
  WF centre and spread   39  (  1.403279,  4.210586,  3.887884 )     1.08655125
  WF centre and spread   40  (  1.417571,  4.203020,  3.899704 )     1.25834081
  WF centre and spread   41  (  1.407848,  4.199789,  3.899569 )     1.27597374
  WF centre and spread   42  (  1.403758,  1.403609,  4.053161 )     1.08026817
  WF centre and spread   43  (  1.407155,  1.414322,  4.040029 )     1.27873918
  WF centre and spread   44  (  1.417023,  1.406515,  4.040312 )     1.27623656
  WF centre and spread   45  ( -0.001053,  0.086150,  1.978013 )     1.54170022
  WF centre and spread   46  (  0.002515,  0.099636,  1.984680 )     1.04236572
  WF centre and spread   47  ( -0.000108,  0.120828,  1.984542 )     1.04560899
  WF centre and spread   48  ( -0.002795, -0.087494,  5.964966 )     1.53170904
  WF centre and spread   49  (  0.002431, -0.102948,  5.954546 )     1.03937293
  WF centre and spread   50  (  0.000629, -0.125287,  5.954806 )     1.04403605
  WF centre and spread   51  (  2.806346,  2.894939,  5.948500 )     1.55767516
  WF centre and spread   52  (  2.808538,  2.907232,  5.954757 )     1.03566736
  WF centre and spread   53  (  2.807224,  2.927654,  5.954667 )     1.04398331
  WF centre and spread   54  (  2.805622,  2.719804,  2.005968 )     1.51598213
  WF centre and spread   55  (  2.807509,  2.704461,  1.984894 )     1.03260019
  WF centre and spread   56  (  2.806939,  2.681499,  1.984821 )     1.04419547
  Sum of centres and spreads (112.425715,111.490611,136.906610 )   260.20180454

   1000    -0.101E-01     4.5511815318      260.2018045406      91.63  <-- CONV
        O_D=      2.5957699 O_OD=     96.2694116 O_TOT=    260.2018045 <-- SPRD
 Delta: O_D= -0.4024038E-02 O_OD= -0.6120903E-02 O_TOT= -0.1014494E-01 <-- DLTA
 ------------------------------------------------------------------------------
 Cycle:   1200
  WF centre and spread    1  (  0.000160,  0.000134, -0.000523 )     1.36167409
  WF centre and spread    2  ( -0.000062,  0.000111,  0.000441 )     1.36161998
  WF centre and spread    3  ( -0.000361,  0.000823, -0.000060 )     1.34326834
  WF centre and spread    4  (  0.000030,  0.000031,  3.969352 )     1.36295059
  WF centre and spread    5  (  0.000131, -0.000114,  3.969944 )     1.36734603
  WF centre and spread    6  ( -0.000397,  0.000319,  3.969561 )     1.34704635
  WF centre and spread    7  (  2.806887,  2.806828,  3.969435 )     1.36135000
  WF centre and spread    8  (  2.807069,  2.806863,  3.969738 )     1.35727120
  WF centre and spread    9  (  2.807247,  2.807587,  3.969674 )     1.34391926
  WF centre and spread   10  (  2.807082,  2.807121,  0.000180 )     1.36533246
  WF centre and spread   11  (  2.806974,  2.807086, -0.000062 )     1.36278875
  WF centre and spread   12  (  2.806734,  2.807444, -0.000068 )     1.34376366
  WF centre and spread   13  ( -0.183560,  0.140134,  0.519141 )    20.82470086
  WF centre and spread   14  (  0.276370, -0.198499, -0.083874 )    16.75756440
  WF centre and spread   15  ( -0.477046, -0.302152,  4.611989 )    26.95800227
  WF centre and spread   16  (  0.390715, -0.151182,  3.953506 )    18.98842543
  WF centre and spread   17  (  2.760522,  2.907993,  4.225032 )    35.02647000
  WF centre and spread   18  (  2.573266,  2.813979,  3.936595 )    34.90782983
  WF centre and spread   19  (  3.081913,  2.646469,  0.646864 )    28.86804397
  WF centre and spread   20  (  2.898343,  2.518704, -0.053196 )    17.34153666
  WF centre and spread   21  (  1.403389,  4.210617,  0.085690 )     1.05585402
  WF centre and spread   22  (  1.406454,  4.205021,  0.070075 )     1.34310892
  WF centre and spread   23  (  1.409461,  4.211085,  0.069812 )     1.35234200
  WF centre and spread   24  (  1.403622,  1.403464, -0.081590 )     1.06464731
  WF centre and spread   25  (  1.402611,  1.410737, -0.071324 )     1.34708411
  WF centre and spread   26  (  1.415847,  1.398942, -0.070814 )     1.33027853
  WF centre and spread   27  (  4.210535,  1.403328,  4.051279 )     1.08243780
  WF centre and spread   28  (  4.206372,  1.405018,  4.040270 )     1.27852094
  WF centre and spread   29  (  4.206024,  1.409411,  4.040442 )     1.26679516
  WF centre and spread   30  (  4.210729,  4.210533,  3.887493 )     1.07599640
  WF centre and spread   31  (  4.200883,  4.202027,  3.899105 )     1.25960546
  WF centre and spread   32  (  4.204925,  4.202772,  3.898829 )     1.26523704
  WF centre and spread   33  (  4.210268,  1.403586, -0.081016 )     1.05434970
  WF centre and spread   34  (  4.213931,  1.403593, -0.071363 )     1.32605992
  WF centre and spread   35  (  4.209593,  1.395834, -0.071415 )     1.32791305
  WF centre and spread   36  (  4.210555,  4.210615,  0.083701 )     1.06460229
  WF centre and spread   37  (  4.208305,  4.201916,  0.070757 )     1.33123311
  WF centre and spread   38  (  4.202868,  4.206940,  0.070481 )     1.32172762
  WF centre and spread   39  (  1.403282,  4.210585,  3.887805 )     1.08603628
  WF centre and spread   40  (  1.418349,  4.201658,  3.899615 )     1.25332553
  WF centre and spread   41  (  1.409189,  4.198726,  3.899450 )     1.27213455
  WF centre and spread   42  (  1.403742,  1.403624,  4.052878 )     1.07982614
  WF centre and spread   43  (  1.407872,  1.414871,  4.040009 )     1.27505196
  WF centre and spread   44  (  1.417567,  1.407158,  4.040290 )     1.27255325
  WF centre and spread   45  ( -0.000920,  0.086092,  1.976392 )     1.52315712
  WF centre and spread   46  (  0.002508,  0.099666,  1.984666 )     1.04182330
  WF centre and spread   47  ( -0.000150,  0.120581,  1.984564 )     1.04466818
  WF centre and spread   48  ( -0.002435, -0.087585,  5.965825 )     1.51282386
  WF centre and spread   49  (  0.002442, -0.102826,  5.954550 )     1.03856764
  WF centre and spread   50  (  0.000569, -0.125122,  5.954813 )     1.04295461
  WF centre and spread   51  (  2.806347,  2.894906,  5.947792 )     1.53768746
  WF centre and spread   52  (  2.808329,  2.907103,  5.954757 )     1.03566737
  WF centre and spread   53  (  2.807221,  2.927338,  5.954691 )     1.04368203
  WF centre and spread   54  (  2.805721,  2.719846,  2.005483 )     1.49609002
  WF centre and spread   55  (  2.807451,  2.704469,  1.984925 )     1.03250470
  WF centre and spread   56  (  2.806979,  2.681547,  1.984802 )     1.04353818
  Sum of centres and spreads (112.402453,111.377754,136.867385 )   259.73078967

   1200     0.519E-01    35.3554440040      259.7307896733     110.15  <-- CONV
        O_D=      3.2860046 O_OD=     95.1081620 O_TOT=    259.7307897 <-- SPRD
 Delta: O_D=  0.5687641E-02 O_OD=  0.4618772E-01 O_TOT=  0.5187536E-01 <-- DLTA
 ------------------------------------------------------------------------------
 Cycle:   1400
  WF centre and spread    1  (  0.000136,  0.000113, -0.000436 )     1.36093813
  WF centre and spread    2  ( -0.000045,  0.000083,  0.000398 )     1.36103347
  WF centre and spread    3  ( -0.000344,  0.000802, -0.000051 )     1.34383821
  WF centre and spread    4  (  0.000039,  0.000017,  3.969449 )     1.36251413
  WF centre and spread    5  (  0.000161, -0.000148,  3.969912 )     1.36686555
  WF centre and spread    6  ( -0.000347,  0.000303,  3.969554 )     1.34739589
  WF centre and spread    7  (  2.806911,  2.806844,  3.969482 )     1.36077670
  WF centre and spread    8  (  2.807060,  2.806860,  3.969694 )     1.35726778
  WF centre and spread    9  (  2.807280,  2.807627,  3.969680 )     1.34425806
  WF centre and spread   10  (  2.807094,  2.807121,  0.000256 )     1.36467824
  WF centre and spread   11  (  2.806971,  2.807095, -0.000074 )     1.36245836
  WF centre and spread   12  (  2.806742,  2.807425, -0.000074 )     1.34424037
  WF centre and spread   13  ( -0.176900,  0.148078,  0.522198 )    20.70075892
  WF centre and spread   14  (  0.272869, -0.212194, -0.084010 )    16.67211319
  WF centre and spread   15  ( -0.496994, -0.321960,  4.659162 )    26.85362932
  WF centre and spread   16  (  0.372295, -0.179644,  3.952146 )    17.84126280
  WF centre and spread   17  (  2.791445,  2.922124,  4.199579 )    34.74514003
  WF centre and spread   18  (  2.546209,  2.789156,  3.928738 )    34.53160708
  WF centre and spread   19  (  3.101871,  2.630258,  0.613118 )    28.83932613
  WF centre and spread   20  (  2.892023,  2.530497, -0.053219 )    16.97355776
  WF centre and spread   21  (  1.403411,  4.210633,  0.085408 )     1.05498847
  WF centre and spread   22  (  1.406359,  4.205167,  0.070066 )     1.33801006
  WF centre and spread   23  (  1.409157,  4.211153,  0.069837 )     1.34816414
  WF centre and spread   24  (  1.403620,  1.403480, -0.081021 )     1.06241214
  WF centre and spread   25  (  1.402487,  1.410480, -0.071316 )     1.34317926
  WF centre and spread   26  (  1.415239,  1.398974, -0.070785 )     1.32558004
  WF centre and spread   27  (  4.210545,  1.403333,  4.050776 )     1.08195015
  WF centre and spread   28  (  4.206095,  1.405623,  4.040217 )     1.27503326
  WF centre and spread   29  (  4.205185,  1.409829,  4.040405 )     1.26287190
  WF centre and spread   30  (  4.210749,  4.210550,  3.887816 )     1.07381730
  WF centre and spread   31  (  4.200023,  4.201039,  3.899101 )     1.25583236
  WF centre and spread   32  (  4.204105,  4.202136,  3.898854 )     1.26115763
  WF centre and spread   33  (  4.210263,  1.403571, -0.081161 )     1.05400611
  WF centre and spread   34  (  4.214087,  1.402777, -0.071327 )     1.32086087
  WF centre and spread   35  (  4.210197,  1.395870, -0.071420 )     1.32301485
  WF centre and spread   36  (  4.210558,  4.210637,  0.083942 )     1.06242963
  WF centre and spread   37  (  4.208132,  4.202100,  0.070701 )     1.32603176
  WF centre and spread   38  (  4.203133,  4.207042,  0.070446 )     1.31673668
  WF centre and spread   39  (  1.403276,  4.210589,  3.887630 )     1.08531773
  WF centre and spread   40  (  1.419168,  4.200248,  3.899544 )     1.24891046
  WF centre and spread   41  (  1.410611,  4.197595,  3.899364 )     1.26799569
  WF centre and spread   42  (  1.403734,  1.403635,  4.052781 )     1.07814880
  WF centre and spread   43  (  1.408745,  1.415549,  4.040001 )     1.27186631
  WF centre and spread   44  (  1.418146,  1.407991,  4.040274 )     1.26885708
  WF centre and spread   45  ( -0.000817,  0.086035,  1.974833 )     1.50721302
  WF centre and spread   46  (  0.002486,  0.099732,  1.984646 )     1.04108775
  WF centre and spread   47  ( -0.000180,  0.120372,  1.984578 )     1.04362885
  WF centre and spread   48  ( -0.002105, -0.087666,  5.966517 )     1.49407561
  WF centre and spread   49  (  0.002454, -0.102663,  5.954544 )     1.03770205
  WF centre and spread   50  (  0.000506, -0.124937,  5.954814 )     1.04169316
  WF centre and spread   51  (  2.806357,  2.894883,  5.946997 )     1.52016315
  WF centre and spread   52  (  2.808095,  2.906970,  5.954761 )     1.03553413
  WF centre and spread   53  (  2.807222,  2.927019,  5.954701 )     1.04324293
  WF centre and spread   54  (  2.805808,  2.719848,  2.005175 )     1.47888020
  WF centre and spread   55  (  2.807401,  2.704453,  1.984944 )     1.03239330
  WF centre and spread   56  (  2.807037,  2.681574,  1.984785 )     1.04280032
  Sum of centres and spreads (112.385763,111.306078,136.846934 )   257.05924725

   1400    -0.198E-01     5.3646265687      257.0592472500     128.81  <-- CONV
        O_D=      2.4570149 O_OD=     93.2656093 O_TOT=    257.0592472 <-- SPRD
 Delta: O_D= -0.6613817E-03 O_OD= -0.1916749E-01 O_TOT= -0.1982887E-01 <-- DLTA
 ------------------------------------------------------------------------------
 Cycle:   1600
  WF centre and spread    1  (  0.000134,  0.000125, -0.000372 )     1.36043428
  WF centre and spread    2  ( -0.000049,  0.000090,  0.000370 )     1.36069486
  WF centre and spread    3  ( -0.000329,  0.000778, -0.000046 )     1.34422469
  WF centre and spread    4  (  0.000047,  0.000026,  3.969494 )     1.36235126
  WF centre and spread    5  (  0.000160, -0.000151,  3.969888 )     1.36672875
  WF centre and spread    6  ( -0.000297,  0.000301,  3.969555 )     1.34760312
  WF centre and spread    7  (  2.806903,  2.806832,  3.969492 )     1.36057409
  WF centre and spread    8  (  2.807063,  2.806848,  3.969649 )     1.35743329
  WF centre and spread    9  (  2.807299,  2.807652,  3.969685 )     1.34447068
  WF centre and spread   10  (  2.807080,  2.807103,  0.000306 )     1.36425297
  WF centre and spread   11  (  2.806976,  2.807085, -0.000079 )     1.36225189
  WF centre and spread   12  (  2.806747,  2.807409, -0.000080 )     1.34450372
  WF centre and spread   13  ( -0.178472,  0.162225,  0.522568 )    20.61165506
  WF centre and spread   14  (  0.273012, -0.221878, -0.085311 )    16.59164791
  WF centre and spread   15  ( -0.511957, -0.344544,  4.682884 )    26.76235992
  WF centre and spread   16  (  0.341885, -0.181548,  3.953192 )    17.16181182
  WF centre and spread   17  (  2.807309,  2.911515,  4.190130 )    34.86301595
  WF centre and spread   18  (  2.532742,  2.767555,  3.907084 )    34.23543561
  WF centre and spread   19  (  3.119615,  2.619279,  0.590072 )    28.85154634
  WF centre and spread   20  (  2.885513,  2.541845, -0.057141 )    16.67319835
  WF centre and spread   21  (  1.403426,  4.210640,  0.085163 )     1.05449343
  WF centre and spread   22  (  1.406283,  4.205318,  0.070069 )     1.33390059
  WF centre and spread   23  (  1.408882,  4.211186,  0.069851 )     1.34499651
  WF centre and spread   24  (  1.403619,  1.403487, -0.080608 )     1.06086433
  WF centre and spread   25  (  1.402372,  1.410229, -0.071338 )     1.34002312
  WF centre and spread   26  (  1.414736,  1.398949, -0.070780 )     1.32199434
  WF centre and spread   27  (  4.210547,  1.403335,  4.050337 )     1.08170667
  WF centre and spread   28  (  4.205786,  1.406199,  4.040182 )     1.27183125
  WF centre and spread   29  (  4.204435,  1.410201,  4.040376 )     1.25985829
  WF centre and spread   30  (  4.210765,  4.210571,  3.887988 )     1.07270712
  WF centre and spread   31  (  4.199249,  4.200196,  3.899084 )     1.25318300
  WF centre and spread   32  (  4.203408,  4.201542,  3.898882 )     1.25818945
[...]
  WF centre and spread   13  (  0.262360,  0.289175,  0.467159 )    19.61707918
  WF centre and spread   14  (  0.945227, -0.887589, -0.124865 )    19.33014424
  WF centre and spread   15  ( -0.603808, -0.363048,  4.105354 )    26.88540104
  WF centre and spread   16  (  0.081905, -0.102060,  3.962282 )    11.97060105
  WF centre and spread   17  (  2.259230,  2.526929,  3.349656 )    36.95186544
  WF centre and spread   18  (  2.472806,  2.444443,  3.923687 )    34.13530306
  WF centre and spread   19  (  2.884612,  2.684139,  0.146301 )    23.71722309
  WF centre and spread   20  (  2.753388,  2.781450, -0.007958 )    13.16338385
  WF centre and spread   21  (  1.403366,  4.210491,  0.083200 )     1.04905015
  WF centre and spread   22  (  1.388241,  4.222962,  0.070888 )     1.26973663
  WF centre and spread   23  (  1.386515,  4.228943,  0.071016 )     1.28152573
  WF centre and spread   24  (  1.403524,  1.403484, -0.079192 )     1.05879603
  WF centre and spread   25  (  1.385115,  1.389622, -0.071123 )     1.28655009
  WF centre and spread   26  (  1.389887,  1.383043, -0.071001 )     1.26857137
  WF centre and spread   27  (  4.210563,  1.403347,  4.047800 )     1.07963062
  WF centre and spread   28  (  4.194677,  1.420437,  4.040543 )     1.28260676
  WF centre and spread   29  (  4.192355,  1.419221,  4.040564 )     1.27883733
  WF centre and spread   30  (  4.210705,  4.210725,  3.888834 )     1.06956493
  WF centre and spread   31  (  4.188347,  4.186981,  3.898594 )     1.28771251
  WF centre and spread   32  (  4.191159,  4.189088,  3.898571 )     1.28643868
  WF centre and spread   33  (  4.210470,  1.403488, -0.080682 )     1.05305788
  WF centre and spread   34  (  4.226826,  1.386695, -0.071362 )     1.28581310
  WF centre and spread   35  (  4.225653,  1.387314, -0.071438 )     1.28444460
  WF centre and spread   36  (  4.210453,  4.210633,  0.083540 )     1.05908181
  WF centre and spread   37  (  4.223775,  4.221142,  0.071033 )     1.27254627
  WF centre and spread   38  (  4.224648,  4.224194,  0.071022 )     1.27731383
  WF centre and spread   39  (  1.403430,  4.210491,  3.887044 )     1.08189367
  WF centre and spread   40  (  1.431319,  4.180639,  3.898798 )     1.28510743
  WF centre and spread   41  (  1.431040,  4.181382,  3.898689 )     1.29206349
  WF centre and spread   42  (  1.403552,  1.403578,  4.050483 )     1.07420455
  WF centre and spread   43  (  1.426320,  1.429288,  4.040363 )     1.28272365
  WF centre and spread   44  (  1.428404,  1.425206,  4.040474 )     1.27327574
  WF centre and spread   45  ( -0.000571,  0.087772,  1.972448 )     1.41953909
  WF centre and spread   46  (  0.001014,  0.100986,  1.984785 )     1.03087137
  WF centre and spread   47  ( -0.000810,  0.121103,  1.984813 )     1.03302157
  WF centre and spread   48  ( -0.000595, -0.088430,  5.963524 )     1.42722130
  WF centre and spread   49  (  0.000658, -0.100525,  5.954407 )     1.02962032
  WF centre and spread   50  ( -0.000310, -0.122055,  5.954666 )     1.03307079
  WF centre and spread   51  (  2.806426,  2.896307,  5.928100 )     1.43906778
  WF centre and spread   52  (  2.806499,  2.906005,  5.954681 )     1.03175496
  WF centre and spread   53  (  2.807292,  2.926912,  5.954529 )     1.03854901
  WF centre and spread   54  (  2.806640,  2.718621,  2.018257 )     1.42305532
  WF centre and spread   55  (  2.806612,  2.704662,  1.984895 )     1.02810207
  WF centre and spread   56  (  2.807180,  2.684720,  1.984888 )     1.03671190
  Sum of centres and spreads (112.127809,110.385672,134.916006 )   245.06907303

   9600    -0.211E-02     2.2302449166      245.0690730293     880.70  <-- CONV
        O_D=      1.2457646 O_OD=     82.4866853 O_TOT=    245.0690730 <-- SPRD
 Delta: O_D=  0.5737768E-03 O_OD= -0.2683256E-02 O_TOT= -0.2109479E-02 <-- DLTA
 ------------------------------------------------------------------------------
 Cycle:   9800
  WF centre and spread    1  ( -0.000024,  0.000024, -0.000020 )     1.36167143
  WF centre and spread    2  ( -0.000147,  0.000159,  0.000293 )     1.36186634
  WF centre and spread    3  ( -0.000039,  0.000676, -0.000071 )     1.34823335
  WF centre and spread    4  (  0.000056,  0.000081,  3.969616 )     1.36577752
  WF centre and spread    5  (  0.000048,  0.000054,  3.969391 )     1.36754333
  WF centre and spread    6  (  0.000156,  0.000698,  3.969664 )     1.34877840
  WF centre and spread    7  (  2.806805,  2.806838,  3.969700 )     1.36201085
  WF centre and spread    8  (  2.806993,  2.806883,  3.969394 )     1.36246966
  WF centre and spread    9  (  2.807183,  2.807419,  3.969738 )     1.34766064
  WF centre and spread   10  (  2.806892,  2.806920,  0.000050 )     1.36467557
  WF centre and spread   11  (  2.806954,  2.806989,  0.000135 )     1.36482099
  WF centre and spread   12  (  2.806879,  2.807053, -0.000104 )     1.35187476
  WF centre and spread   13  (  0.275551,  0.297208,  0.463968 )    19.59801129
  WF centre and spread   14  (  0.990309, -0.948097, -0.119885 )    19.55915052
  WF centre and spread   15  ( -0.601103, -0.375843,  4.105630 )    26.88749345
  WF centre and spread   16  (  0.080670, -0.099104,  3.962554 )    11.95530107
  WF centre and spread   17  (  2.247956,  2.521479,  3.340283 )    36.98082527
  WF centre and spread   18  (  2.469041,  2.429071,  3.922814 )    34.11897197
  WF centre and spread   19  (  2.874048,  2.692940,  0.140614 )    23.43137630
  WF centre and spread   20  (  2.752731,  2.782913, -0.004959 )    13.07044485
  WF centre and spread   21  (  1.403380,  4.210483,  0.083206 )     1.04875249
  WF centre and spread   22  (  1.387166,  4.224068,  0.070930 )     1.26883360
  WF centre and spread   23  (  1.385451,  4.229801,  0.071082 )     1.28038509
  WF centre and spread   24  (  1.403513,  1.403485, -0.079212 )     1.05842882
  WF centre and spread   25  (  1.384257,  1.388563, -0.071098 )     1.28522851
  WF centre and spread   26  (  1.388596,  1.382350, -0.070992 )     1.26771429
  WF centre and spread   27  (  4.210545,  1.403360,  4.047853 )     1.07992289
  WF centre and spread   28  (  4.194512,  1.420672,  4.040564 )     1.28262320
  WF centre and spread   29  (  4.192199,  1.419367,  4.040564 )     1.27940089
  WF centre and spread   30  (  4.210722,  4.210730,  3.888820 )     1.07000933
  WF centre and spread   31  (  4.188248,  4.186847,  3.898597 )     1.28859631
  WF centre and spread   32  (  4.191037,  4.188943,  3.898554 )     1.28755526
  WF centre and spread   33  (  4.210468,  1.403484, -0.080699 )     1.05266258
  WF centre and spread   34  (  4.227506,  1.386034, -0.071338 )     1.28460546
  WF centre and spread   35  (  4.226402,  1.386720, -0.071431 )     1.28331679
  WF centre and spread   36  (  4.210468,  4.210634,  0.083519 )     1.05844881
  WF centre and spread   37  (  4.224604,  4.222108,  0.071072 )     1.27185430
  WF centre and spread   38  (  4.225510,  4.225009,  0.071088 )     1.27644773
  WF centre and spread   39  (  1.403451,  4.210476,  3.887123 )     1.08194236
  WF centre and spread   40  (  1.431326,  4.180601,  3.898787 )     1.28617289
  WF centre and spread   41  (  1.431083,  4.181290,  3.898676 )     1.29283486
  WF centre and spread   42  (  1.403542,  1.403562,  4.050520 )     1.07466486
  WF centre and spread   43  (  1.426498,  1.429382,  4.040371 )     1.28354681
  WF centre and spread   44  (  1.428512,  1.425445,  4.040476 )     1.27399159
  WF centre and spread   45  ( -0.000569,  0.087819,  1.972573 )     1.41777509
  WF centre and spread   46  (  0.000964,  0.100999,  1.984797 )     1.03093194
  WF centre and spread   47  ( -0.000818,  0.121139,  1.984822 )     1.03303208
  WF centre and spread   48  ( -0.000580, -0.088439,  5.963287 )     1.42513620
  WF centre and spread   49  (  0.000586, -0.100510,  5.954417 )     1.02942966
  WF centre and spread   50  ( -0.000324, -0.122012,  5.954661 )     1.03306557
  WF centre and spread   51  (  2.806460,  2.896304,  5.927535 )     1.43859071
  WF centre and spread   52  (  2.806473,  2.906039,  5.954677 )     1.03165426
  WF centre and spread   53  (  2.807262,  2.926974,  5.954537 )     1.03824384
  WF centre and spread   54  (  2.806665,  2.718593,  2.018659 )     1.42324888
  WF centre and spread   55  (  2.806611,  2.704686,  1.984888 )     1.02796576
  WF centre and spread   56  (  2.807151,  2.684768,  1.984887 )     1.03652368
  Sum of centres and spreads (112.159835,110.314132,134.905580 )   244.89249499

   9800    -0.104E-01     3.8492932656      244.8924949927     899.00  <-- CONV
        O_D=      1.3222551 O_OD=     82.2336168 O_TOT=    244.8924950 <-- SPRD
 Delta: O_D= -0.6223858E-02 O_OD= -0.4167072E-02 O_TOT= -0.1039093E-01 <-- DLTA
 ------------------------------------------------------------------------------
 Cycle:  10000
  WF centre and spread    1  ( -0.000038,  0.000009, -0.000024 )     1.36233766
  WF centre and spread    2  ( -0.000146,  0.000149,  0.000272 )     1.36232872
  WF centre and spread    3  (  0.000017,  0.000746, -0.000057 )     1.34895134
  WF centre and spread    4  (  0.000053,  0.000083,  3.969611 )     1.36680641
  WF centre and spread    5  (  0.000029,  0.000062,  3.969415 )     1.36834863
  WF centre and spread    6  (  0.000133,  0.000724,  3.969636 )     1.34937584
  WF centre and spread    7  (  2.806804,  2.806843,  3.969700 )     1.36230415
  WF centre and spread    8  (  2.806989,  2.806905,  3.969424 )     1.36273408
  WF centre and spread    9  (  2.807145,  2.807404,  3.969718 )     1.34813097
  WF centre and spread   10  (  2.806881,  2.806922,  0.000049 )     1.36670385
  WF centre and spread   11  (  2.806960,  2.807005,  0.000106 )     1.36623297
  WF centre and spread   12  (  2.806893,  2.807066, -0.000088 )     1.35283566
  WF centre and spread   13  (  0.381855,  0.345898,  0.460314 )    19.92733117
  WF centre and spread   14  (  1.026019, -0.965009, -0.121853 )    19.56866444
  WF centre and spread   15  ( -0.597428, -0.352913,  4.081235 )    26.94749244
  WF centre and spread   16  (  0.079173, -0.098062,  3.962900 )    11.98895752
  WF centre and spread   17  (  2.195529,  2.492884,  3.326629 )    37.07877632
  WF centre and spread   18  (  2.465668,  2.452273,  3.927714 )    34.23796681
  WF centre and spread   19  (  2.863702,  2.699913,  0.117412 )    23.17546037
  WF centre and spread   20  (  2.753404,  2.783893, -0.003619 )    12.99266847
  WF centre and spread   21  (  1.403373,  4.210475,  0.083151 )     1.05065796
  WF centre and spread   22  (  1.386025,  4.225035,  0.070975 )     1.26941923
  WF centre and spread   23  (  1.384323,  4.230724,  0.071150 )     1.28218659
  WF centre and spread   24  (  1.403513,  1.403481, -0.079207 )     1.06086907
  WF centre and spread   25  (  1.383339,  1.387722, -0.071104 )     1.28517212
  WF centre and spread   26  (  1.387248,  1.381740, -0.071009 )     1.26922277
  WF centre and spread   27  (  4.210548,  1.403350,  4.047871 )     1.08017921
  WF centre and spread   28  (  4.194497,  1.420971,  4.040571 )     1.28387141
  WF centre and spread   29  (  4.192027,  1.419516,  4.040552 )     1.28151703
  WF centre and spread   30  (  4.210721,  4.210724,  3.888912 )     1.07039010
  WF centre and spread   31  (  4.188342,  4.186761,  3.898590 )     1.29072973
  WF centre and spread   32  (  4.191284,  4.188983,  3.898553 )     1.29284104
  WF centre and spread   33  (  4.210478,  1.403482, -0.080735 )     1.05491537
  WF centre and spread   34  (  4.228209,  1.385536, -0.071321 )     1.28401329
  WF centre and spread   35  (  4.227293,  1.386096, -0.071430 )     1.28404060
  WF centre and spread   36  (  4.210473,  4.210642,  0.083484 )     1.06095475
  WF centre and spread   37  (  4.225432,  4.222975,  0.071116 )     1.27230138
  WF centre and spread   38  (  4.226393,  4.225818,  0.071122 )     1.27849555
  WF centre and spread   39  (  1.403447,  4.210482,  3.887130 )     1.08249029
  WF centre and spread   40  (  1.431135,  4.180528,  3.898788 )     1.28865417
  WF centre and spread   41  (  1.430694,  4.181208,  3.898640 )     1.29778850
  WF centre and spread   42  (  1.403547,  1.403559,  4.050612 )     1.07417186
  WF centre and spread   43  (  1.426425,  1.429486,  4.040371 )     1.28500436
  WF centre and spread   44  (  1.428494,  1.425341,  4.040501 )     1.27745590
  WF centre and spread   45  ( -0.000584,  0.087920,  1.972127 )     1.42826196
  WF centre and spread   46  (  0.000912,  0.100986,  1.984825 )     1.03112821
  WF centre and spread   47  ( -0.000821,  0.121158,  1.984808 )     1.03517579
  WF centre and spread   48  ( -0.000568, -0.088482,  5.964058 )     1.44200014
  WF centre and spread   49  (  0.000537, -0.100488,  5.954406 )     1.02959079
  WF centre and spread   50  ( -0.000339, -0.121966,  5.954679 )     1.03415552
  WF centre and spread   51  (  2.806482,  2.896376,  5.926856 )     1.45511261
  WF centre and spread   52  (  2.806448,  2.906080,  5.954655 )     1.03180621
  WF centre and spread   53  (  2.807227,  2.927068,  5.954447 )     1.04034302
  WF centre and spread   54  (  2.806673,  2.718524,  2.019202 )     1.43561122
  WF centre and spread   55  (  2.806610,  2.704708,  1.984901 )     1.02827549
  WF centre and spread   56  (  2.807121,  2.684905,  1.984960 )     1.03897484
  Sum of centres and spreads (112.236604,110.374215,134.845698 )   245.32218592

  10000    -0.237E-01     5.5111618581      245.3221859171     917.21  <-- CONV
        O_D=      1.6502332 O_OD=     82.3353296 O_TOT=    245.3221859 <-- SPRD
 Delta: O_D= -0.1803684E-01 O_OD= -0.5708692E-02 O_TOT= -0.2374553E-01 <-- DLTA
 ------------------------------------------------------------------------------
 Final State
  WF centre and spread    1  ( -0.000038,  0.000009, -0.000024 )     1.36233766
  WF centre and spread    2  ( -0.000146,  0.000149,  0.000272 )     1.36232872
  WF centre and spread    3  (  0.000017,  0.000746, -0.000057 )     1.34895134
  WF centre and spread    4  (  0.000053,  0.000083,  3.969611 )     1.36680641
  WF centre and spread    5  (  0.000029,  0.000062,  3.969415 )     1.36834863
  WF centre and spread    6  (  0.000133,  0.000724,  3.969636 )     1.34937584
  WF centre and spread    7  (  2.806804,  2.806843,  3.969700 )     1.36230415
  WF centre and spread    8  (  2.806989,  2.806905,  3.969424 )     1.36273408
  WF centre and spread    9  (  2.807145,  2.807404,  3.969718 )     1.34813097
  WF centre and spread   10  (  2.806881,  2.806922,  0.000049 )     1.36670385
  WF centre and spread   11  (  2.806960,  2.807005,  0.000106 )     1.36623297
  WF centre and spread   12  (  2.806893,  2.807066, -0.000088 )     1.35283566
  WF centre and spread   13  (  0.381855,  0.345898,  0.460314 )    19.92733117
  WF centre and spread   14  (  1.026019, -0.965009, -0.121853 )    19.56866444
  WF centre and spread   15  ( -0.597428, -0.352913,  4.081235 )    26.94749244
  WF centre and spread   16  (  0.079173, -0.098062,  3.962900 )    11.98895752
  WF centre and spread   17  (  2.195529,  2.492884,  3.326629 )    37.07877632
  WF centre and spread   18  (  2.465668,  2.452273,  3.927714 )    34.23796681
  WF centre and spread   19  (  2.863702,  2.699913,  0.117412 )    23.17546037
  WF centre and spread   20  (  2.753404,  2.783893, -0.003619 )    12.99266847
  WF centre and spread   21  (  1.403373,  4.210475,  0.083151 )     1.05065796
  WF centre and spread   22  (  1.386025,  4.225035,  0.070975 )     1.26941923
  WF centre and spread   23  (  1.384323,  4.230724,  0.071150 )     1.28218659
  WF centre and spread   24  (  1.403513,  1.403481, -0.079207 )     1.06086907
  WF centre and spread   25  (  1.383339,  1.387722, -0.071104 )     1.28517212
  WF centre and spread   26  (  1.387248,  1.381740, -0.071009 )     1.26922277
  WF centre and spread   27  (  4.210548,  1.403350,  4.047871 )     1.08017921
  WF centre and spread   28  (  4.194497,  1.420971,  4.040571 )     1.28387141
  WF centre and spread   29  (  4.192027,  1.419516,  4.040552 )     1.28151703
  WF centre and spread   30  (  4.210721,  4.210724,  3.888912 )     1.07039010
  WF centre and spread   31  (  4.188342,  4.186761,  3.898590 )     1.29072973
  WF centre and spread   32  (  4.191284,  4.188983,  3.898553 )     1.29284104
  WF centre and spread   33  (  4.210478,  1.403482, -0.080735 )     1.05491537
  WF centre and spread   34  (  4.228209,  1.385536, -0.071321 )     1.28401329
  WF centre and spread   35  (  4.227293,  1.386096, -0.071430 )     1.28404060
  WF centre and spread   36  (  4.210473,  4.210642,  0.083484 )     1.06095475
  WF centre and spread   37  (  4.225432,  4.222975,  0.071116 )     1.27230138
  WF centre and spread   38  (  4.226393,  4.225818,  0.071122 )     1.27849555
  WF centre and spread   39  (  1.403447,  4.210482,  3.887130 )     1.08249029
  WF centre and spread   40  (  1.431135,  4.180528,  3.898788 )     1.28865417
  WF centre and spread   41  (  1.430694,  4.181208,  3.898640 )     1.29778850
  WF centre and spread   42  (  1.403547,  1.403559,  4.050612 )     1.07417186
  WF centre and spread   43  (  1.426425,  1.429486,  4.040371 )     1.28500436
  WF centre and spread   44  (  1.428494,  1.425341,  4.040501 )     1.27745590
  WF centre and spread   45  ( -0.000584,  0.087920,  1.972127 )     1.42826196
  WF centre and spread   46  (  0.000912,  0.100986,  1.984825 )     1.03112821
  WF centre and spread   47  ( -0.000821,  0.121158,  1.984808 )     1.03517579
  WF centre and spread   48  ( -0.000568, -0.088482,  5.964058 )     1.44200014
  WF centre and spread   49  (  0.000537, -0.100488,  5.954406 )     1.02959079
  WF centre and spread   50  ( -0.000339, -0.121966,  5.954679 )     1.03415552
  WF centre and spread   51  (  2.806482,  2.896376,  5.926856 )     1.45511261
  WF centre and spread   52  (  2.806448,  2.906080,  5.954655 )     1.03180621
  WF centre and spread   53  (  2.807227,  2.927068,  5.954447 )     1.04034302
  WF centre and spread   54  (  2.806673,  2.718524,  2.019202 )     1.43561122
  WF centre and spread   55  (  2.806610,  2.704708,  1.984901 )     1.02827549
  WF centre and spread   56  (  2.807121,  2.684905,  1.984960 )     1.03897484
  Sum of centres and spreads (112.236604,110.374215,134.845698 )   245.32218592

         Spreads (Ang^2)       Omega I      =   161.336623124
        ================       Omega D      =     1.650233194
                               Omega OD     =    82.335329600
    Final Spread (Ang^2)       Omega Total  =   245.322185917
 ------------------------------------------------------------------------------

 Writing checkpoint file smo.chk... done

 *---------------------------------------------------------------------------*
 |                               PLOTTING                                    |
 *---------------------------------------------------------------------------*


 Calculating interpolated band-structure

 Time to calculate interpolated band structure       2.113 (sec)

  
  Omega Invariant:   1-s^2 =   161.336623122 (Ang^2)
                   -2log s =  1340.095427582 (Ang^2)
                    acos^2 =   278.193923726 (Ang^2)

 *===========================================================================*
 |                             TIMING INFORMATION                            |
 *===========================================================================*
 |    Tag                                                Ncalls      Time (s)|
 |---------------------------------------------------------------------------|
 |kmesh: get                                        :         1         0.115|
 |overlap: read                                     :         1         4.490|
 |wann: main                                        :         1       916.560|
 |plot: main                                        :         1         6.215|
 *---------------------------------------------------------------------------*
 All done: wannier90 exiting
