
     Program PWSCF v.7.5 starts on 29Nov2025 at 20:38:41 
        Git branch: develop
        Last git commit: 70e07caa2a5fab3dd9374bc01196f67e923fc5ea
        Last git commit date: Mon Aug 18 10:06:47 2025 +0000
        Last git commit subject: Merge branch 'stressed-by-optional-variables' into

     This program is part of the open-source Quantum ESPRESSO suite
     for quantum simulation of materials; please cite
         "P. Giannozzi et al., J. Phys.:Condens. Matter 21 395502 (2009);
         "P. Giannozzi et al., J. Phys.:Condens. Matter 29 465901 (2017);
         "P. Giannozzi et al., J. Chem. Phys. 152 154105 (2020);
          URL http://www.quantum-espresso.org", 
     in publications or presentations arising from this work. More details at
     http://www.quantum-espresso.org/quote

     Parallel version (MPI), running on   128 processors

     MPI processes distributed on     1 nodes
     981612 MiB available memory on the printing compute node when the environment starts

     Waiting for input...
     Reading input from standard input

     Current dimensions of program PWSCF are:
     Max number of different atomic species (ntypx) = 10
     Max number of k-points (npk) =  40000
     Max angular momentum in pseudopotentials (lmaxx) =  4
     file Sr.pz-spn-kjpaw_psl.1.0.0.UPF: wavefunction(s)  4P renormalized
     file Mo.pz-spn-kjpaw_psl.1.0.0.UPF: wavefunction(s)  4S 4D renormalized
     file O.pz-n-kjpaw_psl.1.0.0.UPF: wavefunction(s)  2S 2P renormalized

     Atomic positions and unit cell read from directory:
     ./out/smo.save/

     Found identity + (  0.5000 -0.5000 -0.5000) symmetry
     This is a supercell, fractional translations are disabled

     K-points division:     npool     =     128
     Subspace diagonalization in iterative solution of the eigenvalue problem:
     a serial algorithm will be used

     Message from routine divide_et_impera:
     suboptimal parallelization: some nodes have no k-points

     G-vector sticks info
     --------------------
     sticks:   dense  smooth     PW     G-vecs:    dense   smooth      PW
     Sum        3577    1789    553               228191    80831   13637

     Using Slab Decomposition



     bravais-lattice index     =            0
     lattice parameter (alat)  =      10.6088  a.u.
     unit-cell volume          =    1688.5722 (a.u.)^3
     number of atoms/cell      =           20
     number of atomic types    =            3
     number of electrons       =       168.00
     number of Kohn-Sham states=          101
     kinetic-energy cutoff     =      50.0000  Ry
     charge density cutoff     =     400.0000  Ry
     Exchange-correlation= SLA  PZ   NOGX NOGC
                           (   1   1   0   0   0   0   0)

     celldm(1)=  10.608847  celldm(2)=   0.000000  celldm(3)=   0.000000
     celldm(4)=   0.000000  celldm(5)=   0.000000  celldm(6)=   0.000000

     crystal axes: (cart. coord. in units of alat)
               a(1) = (   1.000000   0.000000   0.000000 )  
               a(2) = (   0.000000   1.000000   0.000000 )  
               a(3) = (   0.000000   0.000000   1.414214 )  

     reciprocal axes: (cart. coord. in units 2 pi/alat)
               b(1) = (  1.000000  0.000000  0.000000 )  
               b(2) = (  0.000000  1.000000  0.000000 )  
               b(3) = (  0.000000  0.000000  0.707107 )  


     PseudoPot. # 1 for Sr read from file:
     ../../../pseudo/Sr.pz-spn-kjpaw_psl.1.0.0.UPF
     MD5 check sum: 14b1f655f5497b386c4f305353cf4fd4
     Pseudo is Projector augmented-wave + core cor, Zval = 10.0
     Generated using 'atomic' code by A. Dal Corso  v.7.3
     Shape of augmentation charge: PSQ
     Using radial grid of 1221 points,  6 beta functions with: 
                l(1) =   0
                l(2) =   0
                l(3) =   1
                l(4) =   1
                l(5) =   2
                l(6) =   2
     Q(r) pseudized with 0 coefficients 


     PseudoPot. # 2 for Mo read from file:
     ../../../pseudo/Mo.pz-spn-kjpaw_psl.1.0.0.UPF
     MD5 check sum: 2e12aff744a4785a34e7548d4bec1d21
     Pseudo is Projector augmented-wave + core cor, Zval = 14.0
     Generated using 'atomic' code by A. Dal Corso  v.7.3
     Shape of augmentation charge: PSQ
     Using radial grid of 1229 points,  6 beta functions with: 
                l(1) =   0
                l(2) =   0
                l(3) =   1
                l(4) =   1
                l(5) =   2
                l(6) =   2
     Q(r) pseudized with 0 coefficients 


     PseudoPot. # 3 for O  read from file:
     ../../../pseudo/O.pz-n-kjpaw_psl.1.0.0.UPF
     MD5 check sum: 71a951e35f67dc87891058fc5642ed8f
     Pseudo is Projector augmented-wave + core cor, Zval =  6.0
     Generated using 'atomic' code by A. Dal Corso  v.7.3
     Shape of augmentation charge: PSQ
     Using radial grid of 1095 points,  4 beta functions with: 
                l(1) =   0
                l(2) =   0
                l(3) =   1
                l(4) =   1
     Q(r) pseudized with 0 coefficients 


     atomic species   valence    mass     pseudopotential
     Sr               10.00    87.62000     Sr( 1.00)
     Mo               14.00    95.95000     Mo( 1.00)
     O                 6.00    15.99900     O ( 1.00)

     No symmetry found


                                    s                        frac. trans.

      isym =  1     identity                                     

 cryst.   s( 1) = (     1          0          0      )
                  (     0          1          0      )
                  (     0          0          1      )

 cart.    s( 1) = (  1.0000000  0.0000000  0.0000000 )
                  (  0.0000000  1.0000000  0.0000000 )
                  (  0.0000000  0.0000000  1.0000000 )


   Cartesian axes

     site n.     atom                  positions (alat units)
         1        Sr     tau(   1) = (   0.0000000   0.5000000   0.3535535  )
         2        Sr     tau(   2) = (   0.0000000   0.5000000   1.0606604  )
         3        Sr     tau(   3) = (   0.5000000   0.0000000   1.0606604  )
         4        Sr     tau(   4) = (   0.5000000   0.0000000   0.3535535  )
         5        Mo     tau(   5) = (   0.0000000   0.0000000   0.0000000  )
         6        Mo     tau(   6) = (   0.0000000   0.0000000   0.7071069  )
         7        Mo     tau(   7) = (   0.5000000   0.5000000   0.7071069  )
         8        Mo     tau(   8) = (   0.5000000   0.5000000   0.0000000  )
         9        O      tau(   9) = (   0.2500000   0.7500000  -0.0377850  )
        10        O      tau(  10) = (   0.2500000   0.2500000   0.0377850  )
        11        O      tau(  11) = (   0.7500000   0.2500000   0.6693220  )
        12        O      tau(  12) = (   0.7500000   0.7500000   0.7448919  )
        13        O      tau(  13) = (   0.7500000   0.2500000   0.0377850  )
        14        O      tau(  14) = (   0.7500000   0.7500000  -0.0377850  )
        15        O      tau(  15) = (   0.2500000   0.7500000   0.7448919  )
        16        O      tau(  16) = (   0.2500000   0.2500000   0.6693220  )
        17        O      tau(  17) = (   0.0000000  -0.0534360   0.3535535  )
        18        O      tau(  18) = (   0.0000000   0.0534360   1.0606604  )
        19        O      tau(  19) = (   0.5000000   0.4465640   1.0606604  )
        20        O      tau(  20) = (   0.5000000   0.5534360   0.3535535  )

   Crystallographic axes

     site n.     atom                  positions (cryst. coord.)
         1        Sr     tau(   1) = (  0.0000000  0.5000000  0.2500000  )
         2        Sr     tau(   2) = (  0.0000000  0.5000000  0.7500000  )
         3        Sr     tau(   3) = (  0.5000000  0.0000000  0.7500000  )
         4        Sr     tau(   4) = (  0.5000000  0.0000000  0.2500000  )
         5        Mo     tau(   5) = (  0.0000000  0.0000000  0.0000000  )
         6        Mo     tau(   6) = (  0.0000000  0.0000000  0.5000000  )
         7        Mo     tau(   7) = (  0.5000000  0.5000000  0.5000000  )
         8        Mo     tau(   8) = (  0.5000000  0.5000000  0.0000000  )
         9        O      tau(   9) = (  0.2500000  0.7500000 -0.0267180  )
        10        O      tau(  10) = (  0.2500000  0.2500000  0.0267180  )
        11        O      tau(  11) = (  0.7500000  0.2500000  0.4732820  )
        12        O      tau(  12) = (  0.7500000  0.7500000  0.5267180  )
        13        O      tau(  13) = (  0.7500000  0.2500000  0.0267180  )
        14        O      tau(  14) = (  0.7500000  0.7500000 -0.0267180  )
        15        O      tau(  15) = (  0.2500000  0.7500000  0.5267180  )
        16        O      tau(  16) = (  0.2500000  0.2500000  0.4732820  )
        17        O      tau(  17) = (  0.0000000 -0.0534360  0.2500000  )
        18        O      tau(  18) = (  0.0000000  0.0534360  0.7500000  )
        19        O      tau(  19) = (  0.5000000  0.4465640  0.7500000  )
        20        O      tau(  20) = (  0.5000000  0.5534360  0.2500000  )

     number of k points=   125  Fermi-Dirac smearing, width (Ry)=  0.0015
                       cart. coord. in units 2pi/alat
        k(    1) = (   0.0000000   0.0000000   0.0000000), wk =   0.0160000
        k(    2) = (   0.0000000   0.0000000   0.1414213), wk =   0.0160000
        k(    3) = (   0.0000000   0.0000000   0.2828427), wk =   0.0160000
        k(    4) = (   0.0000000   0.0000000   0.4242640), wk =   0.0160000
        k(    5) = (   0.0000000   0.0000000   0.5656853), wk =   0.0160000
        k(    6) = (   0.0000000   0.2000000   0.0000000), wk =   0.0160000
        k(    7) = (   0.0000000   0.2000000   0.1414213), wk =   0.0160000
        k(    8) = (   0.0000000   0.2000000   0.2828427), wk =   0.0160000
        k(    9) = (   0.0000000   0.2000000   0.4242640), wk =   0.0160000
        k(   10) = (   0.0000000   0.2000000   0.5656853), wk =   0.0160000
        k(   11) = (   0.0000000   0.4000000   0.0000000), wk =   0.0160000
        k(   12) = (   0.0000000   0.4000000   0.1414213), wk =   0.0160000
        k(   13) = (   0.0000000   0.4000000   0.2828427), wk =   0.0160000
        k(   14) = (   0.0000000   0.4000000   0.4242640), wk =   0.0160000
        k(   15) = (   0.0000000   0.4000000   0.5656853), wk =   0.0160000
        k(   16) = (   0.0000000   0.6000000   0.0000000), wk =   0.0160000
        k(   17) = (   0.0000000   0.6000000   0.1414213), wk =   0.0160000
        k(   18) = (   0.0000000   0.6000000   0.2828427), wk =   0.0160000
        k(   19) = (   0.0000000   0.6000000   0.4242640), wk =   0.0160000
        k(   20) = (   0.0000000   0.6000000   0.5656853), wk =   0.0160000
        k(   21) = (   0.0000000   0.8000000   0.0000000), wk =   0.0160000
        k(   22) = (   0.0000000   0.8000000   0.1414213), wk =   0.0160000
        k(   23) = (   0.0000000   0.8000000   0.2828427), wk =   0.0160000
        k(   24) = (   0.0000000   0.8000000   0.4242640), wk =   0.0160000
        k(   25) = (   0.0000000   0.8000000   0.5656853), wk =   0.0160000
        k(   26) = (   0.2000000   0.0000000   0.0000000), wk =   0.0160000
        k(   27) = (   0.2000000   0.0000000   0.1414213), wk =   0.0160000
        k(   28) = (   0.2000000   0.0000000   0.2828427), wk =   0.0160000
        k(   29) = (   0.2000000   0.0000000   0.4242640), wk =   0.0160000
        k(   30) = (   0.2000000   0.0000000   0.5656853), wk =   0.0160000
        k(   31) = (   0.2000000   0.2000000   0.0000000), wk =   0.0160000
        k(   32) = (   0.2000000   0.2000000   0.1414213), wk =   0.0160000
        k(   33) = (   0.2000000   0.2000000   0.2828427), wk =   0.0160000
        k(   34) = (   0.2000000   0.2000000   0.4242640), wk =   0.0160000
        k(   35) = (   0.2000000   0.2000000   0.5656853), wk =   0.0160000
        k(   36) = (   0.2000000   0.4000000   0.0000000), wk =   0.0160000
        k(   37) = (   0.2000000   0.4000000   0.1414213), wk =   0.0160000
        k(   38) = (   0.2000000   0.4000000   0.2828427), wk =   0.0160000
        k(   39) = (   0.2000000   0.4000000   0.4242640), wk =   0.0160000
        k(   40) = (   0.2000000   0.4000000   0.5656853), wk =   0.0160000
        k(   41) = (   0.2000000   0.6000000   0.0000000), wk =   0.0160000
        k(   42) = (   0.2000000   0.6000000   0.1414213), wk =   0.0160000
        k(   43) = (   0.2000000   0.6000000   0.2828427), wk =   0.0160000
        k(   44) = (   0.2000000   0.6000000   0.4242640), wk =   0.0160000
        k(   45) = (   0.2000000   0.6000000   0.5656853), wk =   0.0160000
        k(   46) = (   0.2000000   0.8000000   0.0000000), wk =   0.0160000
        k(   47) = (   0.2000000   0.8000000   0.1414213), wk =   0.0160000
        k(   48) = (   0.2000000   0.8000000   0.2828427), wk =   0.0160000
        k(   49) = (   0.2000000   0.8000000   0.4242640), wk =   0.0160000
        k(   50) = (   0.2000000   0.8000000   0.5656853), wk =   0.0160000
        k(   51) = (   0.4000000   0.0000000   0.0000000), wk =   0.0160000
        k(   52) = (   0.4000000   0.0000000   0.1414213), wk =   0.0160000
        k(   53) = (   0.4000000   0.0000000   0.2828427), wk =   0.0160000
        k(   54) = (   0.4000000   0.0000000   0.4242640), wk =   0.0160000
        k(   55) = (   0.4000000   0.0000000   0.5656853), wk =   0.0160000
        k(   56) = (   0.4000000   0.2000000   0.0000000), wk =   0.0160000
        k(   57) = (   0.4000000   0.2000000   0.1414213), wk =   0.0160000
        k(   58) = (   0.4000000   0.2000000   0.2828427), wk =   0.0160000
        k(   59) = (   0.4000000   0.2000000   0.4242640), wk =   0.0160000
        k(   60) = (   0.4000000   0.2000000   0.5656853), wk =   0.0160000
        k(   61) = (   0.4000000   0.4000000   0.0000000), wk =   0.0160000
        k(   62) = (   0.4000000   0.4000000   0.1414213), wk =   0.0160000
        k(   63) = (   0.4000000   0.4000000   0.2828427), wk =   0.0160000
        k(   64) = (   0.4000000   0.4000000   0.4242640), wk =   0.0160000
        k(   65) = (   0.4000000   0.4000000   0.5656853), wk =   0.0160000
        k(   66) = (   0.4000000   0.6000000   0.0000000), wk =   0.0160000
        k(   67) = (   0.4000000   0.6000000   0.1414213), wk =   0.0160000
        k(   68) = (   0.4000000   0.6000000   0.2828427), wk =   0.0160000
        k(   69) = (   0.4000000   0.6000000   0.4242640), wk =   0.0160000
        k(   70) = (   0.4000000   0.6000000   0.5656853), wk =   0.0160000
        k(   71) = (   0.4000000   0.8000000   0.0000000), wk =   0.0160000
        k(   72) = (   0.4000000   0.8000000   0.1414213), wk =   0.0160000
        k(   73) = (   0.4000000   0.8000000   0.2828427), wk =   0.0160000
        k(   74) = (   0.4000000   0.8000000   0.4242640), wk =   0.0160000
        k(   75) = (   0.4000000   0.8000000   0.5656853), wk =   0.0160000
        k(   76) = (   0.6000000   0.0000000   0.0000000), wk =   0.0160000
        k(   77) = (   0.6000000   0.0000000   0.1414213), wk =   0.0160000
        k(   78) = (   0.6000000   0.0000000   0.2828427), wk =   0.0160000
        k(   79) = (   0.6000000   0.0000000   0.4242640), wk =   0.0160000
        k(   80) = (   0.6000000   0.0000000   0.5656853), wk =   0.0160000
        k(   81) = (   0.6000000   0.2000000   0.0000000), wk =   0.0160000
        k(   82) = (   0.6000000   0.2000000   0.1414213), wk =   0.0160000
        k(   83) = (   0.6000000   0.2000000   0.2828427), wk =   0.0160000
        k(   84) = (   0.6000000   0.2000000   0.4242640), wk =   0.0160000
        k(   85) = (   0.6000000   0.2000000   0.5656853), wk =   0.0160000
        k(   86) = (   0.6000000   0.4000000   0.0000000), wk =   0.0160000
        k(   87) = (   0.6000000   0.4000000   0.1414213), wk =   0.0160000
        k(   88) = (   0.6000000   0.4000000   0.2828427), wk =   0.0160000
        k(   89) = (   0.6000000   0.4000000   0.4242640), wk =   0.0160000
        k(   90) = (   0.6000000   0.4000000   0.5656853), wk =   0.0160000
        k(   91) = (   0.6000000   0.6000000   0.0000000), wk =   0.0160000
        k(   92) = (   0.6000000   0.6000000   0.1414213), wk =   0.0160000
        k(   93) = (   0.6000000   0.6000000   0.2828427), wk =   0.0160000
        k(   94) = (   0.6000000   0.6000000   0.4242640), wk =   0.0160000
        k(   95) = (   0.6000000   0.6000000   0.5656853), wk =   0.0160000
        k(   96) = (   0.6000000   0.8000000   0.0000000), wk =   0.0160000
        k(   97) = (   0.6000000   0.8000000   0.1414213), wk =   0.0160000
        k(   98) = (   0.6000000   0.8000000   0.2828427), wk =   0.0160000
        k(   99) = (   0.6000000   0.8000000   0.4242640), wk =   0.0160000
        k(  100) = (   0.6000000   0.8000000   0.5656853), wk =   0.0160000
        k(  101) = (   0.8000000   0.0000000   0.0000000), wk =   0.0160000
        k(  102) = (   0.8000000   0.0000000   0.1414213), wk =   0.0160000
        k(  103) = (   0.8000000   0.0000000   0.2828427), wk =   0.0160000
        k(  104) = (   0.8000000   0.0000000   0.4242640), wk =   0.0160000
        k(  105) = (   0.8000000   0.0000000   0.5656853), wk =   0.0160000
        k(  106) = (   0.8000000   0.2000000   0.0000000), wk =   0.0160000
        k(  107) = (   0.8000000   0.2000000   0.1414213), wk =   0.0160000
        k(  108) = (   0.8000000   0.2000000   0.2828427), wk =   0.0160000
        k(  109) = (   0.8000000   0.2000000   0.4242640), wk =   0.0160000
        k(  110) = (   0.8000000   0.2000000   0.5656853), wk =   0.0160000
        k(  111) = (   0.8000000   0.4000000   0.0000000), wk =   0.0160000
        k(  112) = (   0.8000000   0.4000000   0.1414213), wk =   0.0160000
        k(  113) = (   0.8000000   0.4000000   0.2828427), wk =   0.0160000
        k(  114) = (   0.8000000   0.4000000   0.4242640), wk =   0.0160000
        k(  115) = (   0.8000000   0.4000000   0.5656853), wk =   0.0160000
        k(  116) = (   0.8000000   0.6000000   0.0000000), wk =   0.0160000
        k(  117) = (   0.8000000   0.6000000   0.1414213), wk =   0.0160000
        k(  118) = (   0.8000000   0.6000000   0.2828427), wk =   0.0160000
        k(  119) = (   0.8000000   0.6000000   0.4242640), wk =   0.0160000
        k(  120) = (   0.8000000   0.6000000   0.5656853), wk =   0.0160000
        k(  121) = (   0.8000000   0.8000000   0.0000000), wk =   0.0160000
        k(  122) = (   0.8000000   0.8000000   0.1414213), wk =   0.0160000
        k(  123) = (   0.8000000   0.8000000   0.2828427), wk =   0.0160000
        k(  124) = (   0.8000000   0.8000000   0.4242640), wk =   0.0160000
        k(  125) = (   0.8000000   0.8000000   0.5656853), wk =   0.0160000

                       cryst. coord.
        k(    1) = (   0.0000000   0.0000000   0.0000000), wk =   0.0160000
        k(    2) = (   0.0000000   0.0000000   0.2000000), wk =   0.0160000
        k(    3) = (   0.0000000   0.0000000   0.4000000), wk =   0.0160000
        k(    4) = (   0.0000000   0.0000000   0.6000000), wk =   0.0160000
        k(    5) = (   0.0000000   0.0000000   0.8000000), wk =   0.0160000
        k(    6) = (   0.0000000   0.2000000   0.0000000), wk =   0.0160000
        k(    7) = (   0.0000000   0.2000000   0.2000000), wk =   0.0160000
        k(    8) = (   0.0000000   0.2000000   0.4000000), wk =   0.0160000
        k(    9) = (   0.0000000   0.2000000   0.6000000), wk =   0.0160000
        k(   10) = (   0.0000000   0.2000000   0.8000000), wk =   0.0160000
        k(   11) = (   0.0000000   0.4000000   0.0000000), wk =   0.0160000
        k(   12) = (   0.0000000   0.4000000   0.2000000), wk =   0.0160000
        k(   13) = (   0.0000000   0.4000000   0.4000000), wk =   0.0160000
        k(   14) = (   0.0000000   0.4000000   0.6000000), wk =   0.0160000
        k(   15) = (   0.0000000   0.4000000   0.8000000), wk =   0.0160000
        k(   16) = (   0.0000000   0.6000000   0.0000000), wk =   0.0160000
        k(   17) = (   0.0000000   0.6000000   0.2000000), wk =   0.0160000
        k(   18) = (   0.0000000   0.6000000   0.4000000), wk =   0.0160000
        k(   19) = (   0.0000000   0.6000000   0.6000000), wk =   0.0160000
        k(   20) = (   0.0000000   0.6000000   0.8000000), wk =   0.0160000
        k(   21) = (   0.0000000   0.8000000   0.0000000), wk =   0.0160000
        k(   22) = (   0.0000000   0.8000000   0.2000000), wk =   0.0160000
        k(   23) = (   0.0000000   0.8000000   0.4000000), wk =   0.0160000
        k(   24) = (   0.0000000   0.8000000   0.6000000), wk =   0.0160000
        k(   25) = (   0.0000000   0.8000000   0.8000000), wk =   0.0160000
        k(   26) = (   0.2000000   0.0000000   0.0000000), wk =   0.0160000
        k(   27) = (   0.2000000   0.0000000   0.2000000), wk =   0.0160000
        k(   28) = (   0.2000000   0.0000000   0.4000000), wk =   0.0160000
        k(   29) = (   0.2000000   0.0000000   0.6000000), wk =   0.0160000
        k(   30) = (   0.2000000   0.0000000   0.8000000), wk =   0.0160000
        k(   31) = (   0.2000000   0.2000000   0.0000000), wk =   0.0160000
        k(   32) = (   0.2000000   0.2000000   0.2000000), wk =   0.0160000
        k(   33) = (   0.2000000   0.2000000   0.4000000), wk =   0.0160000
        k(   34) = (   0.2000000   0.2000000   0.6000000), wk =   0.0160000
        k(   35) = (   0.2000000   0.2000000   0.8000000), wk =   0.0160000
        k(   36) = (   0.2000000   0.4000000   0.0000000), wk =   0.0160000
        k(   37) = (   0.2000000   0.4000000   0.2000000), wk =   0.0160000
        k(   38) = (   0.2000000   0.4000000   0.4000000), wk =   0.0160000
        k(   39) = (   0.2000000   0.4000000   0.6000000), wk =   0.0160000
        k(   40) = (   0.2000000   0.4000000   0.8000000), wk =   0.0160000
        k(   41) = (   0.2000000   0.6000000   0.0000000), wk =   0.0160000
        k(   42) = (   0.2000000   0.6000000   0.2000000), wk =   0.0160000
        k(   43) = (   0.2000000   0.6000000   0.4000000), wk =   0.0160000
        k(   44) = (   0.2000000   0.6000000   0.6000000), wk =   0.0160000
        k(   45) = (   0.2000000   0.6000000   0.8000000), wk =   0.0160000
        k(   46) = (   0.2000000   0.8000000   0.0000000), wk =   0.0160000
        k(   47) = (   0.2000000   0.8000000   0.2000000), wk =   0.0160000
        k(   48) = (   0.2000000   0.8000000   0.4000000), wk =   0.0160000
        k(   49) = (   0.2000000   0.8000000   0.6000000), wk =   0.0160000
        k(   50) = (   0.2000000   0.8000000   0.8000000), wk =   0.0160000
        k(   51) = (   0.4000000   0.0000000   0.0000000), wk =   0.0160000
        k(   52) = (   0.4000000   0.0000000   0.2000000), wk =   0.0160000
        k(   53) = (   0.4000000   0.0000000   0.4000000), wk =   0.0160000
        k(   54) = (   0.4000000   0.0000000   0.6000000), wk =   0.0160000
        k(   55) = (   0.4000000   0.0000000   0.8000000), wk =   0.0160000
        k(   56) = (   0.4000000   0.2000000   0.0000000), wk =   0.0160000
        k(   57) = (   0.4000000   0.2000000   0.2000000), wk =   0.0160000
        k(   58) = (   0.4000000   0.2000000   0.4000000), wk =   0.0160000
        k(   59) = (   0.4000000   0.2000000   0.6000000), wk =   0.0160000
        k(   60) = (   0.4000000   0.2000000   0.8000000), wk =   0.0160000
        k(   61) = (   0.4000000   0.4000000   0.0000000), wk =   0.0160000
        k(   62) = (   0.4000000   0.4000000   0.2000000), wk =   0.0160000
        k(   63) = (   0.4000000   0.4000000   0.4000000), wk =   0.0160000
        k(   64) = (   0.4000000   0.4000000   0.6000000), wk =   0.0160000
        k(   65) = (   0.4000000   0.4000000   0.8000000), wk =   0.0160000
        k(   66) = (   0.4000000   0.6000000   0.0000000), wk =   0.0160000
        k(   67) = (   0.4000000   0.6000000   0.2000000), wk =   0.0160000
        k(   68) = (   0.4000000   0.6000000   0.4000000), wk =   0.0160000
        k(   69) = (   0.4000000   0.6000000   0.6000000), wk =   0.0160000
        k(   70) = (   0.4000000   0.6000000   0.8000000), wk =   0.0160000
        k(   71) = (   0.4000000   0.8000000   0.0000000), wk =   0.0160000
        k(   72) = (   0.4000000   0.8000000   0.2000000), wk =   0.0160000
        k(   73) = (   0.4000000   0.8000000   0.4000000), wk =   0.0160000
        k(   74) = (   0.4000000   0.8000000   0.6000000), wk =   0.0160000
        k(   75) = (   0.4000000   0.8000000   0.8000000), wk =   0.0160000
        k(   76) = (   0.6000000   0.0000000   0.0000000), wk =   0.0160000
        k(   77) = (   0.6000000   0.0000000   0.2000000), wk =   0.0160000
        k(   78) = (   0.6000000   0.0000000   0.4000000), wk =   0.0160000
        k(   79) = (   0.6000000   0.0000000   0.6000000), wk =   0.0160000
        k(   80) = (   0.6000000   0.0000000   0.8000000), wk =   0.0160000
        k(   81) = (   0.6000000   0.2000000   0.0000000), wk =   0.0160000
        k(   82) = (   0.6000000   0.2000000   0.2000000), wk =   0.0160000
        k(   83) = (   0.6000000   0.2000000   0.4000000), wk =   0.0160000
        k(   84) = (   0.6000000   0.2000000   0.6000000), wk =   0.0160000
        k(   85) = (   0.6000000   0.2000000   0.8000000), wk =   0.0160000
        k(   86) = (   0.6000000   0.4000000   0.0000000), wk =   0.0160000
        k(   87) = (   0.6000000   0.4000000   0.2000000), wk =   0.0160000
        k(   88) = (   0.6000000   0.4000000   0.4000000), wk =   0.0160000
        k(   89) = (   0.6000000   0.4000000   0.6000000), wk =   0.0160000
        k(   90) = (   0.6000000   0.4000000   0.8000000), wk =   0.0160000
        k(   91) = (   0.6000000   0.6000000   0.0000000), wk =   0.0160000
        k(   92) = (   0.6000000   0.6000000   0.2000000), wk =   0.0160000
        k(   93) = (   0.6000000   0.6000000   0.4000000), wk =   0.0160000
        k(   94) = (   0.6000000   0.6000000   0.6000000), wk =   0.0160000
        k(   95) = (   0.6000000   0.6000000   0.8000000), wk =   0.0160000
        k(   96) = (   0.6000000   0.8000000   0.0000000), wk =   0.0160000
        k(   97) = (   0.6000000   0.8000000   0.2000000), wk =   0.0160000
        k(   98) = (   0.6000000   0.8000000   0.4000000), wk =   0.0160000
        k(   99) = (   0.6000000   0.8000000   0.6000000), wk =   0.0160000
        k(  100) = (   0.6000000   0.8000000   0.8000000), wk =   0.0160000
        k(  101) = (   0.8000000   0.0000000   0.0000000), wk =   0.0160000
        k(  102) = (   0.8000000   0.0000000   0.2000000), wk =   0.0160000
        k(  103) = (   0.8000000   0.0000000   0.4000000), wk =   0.0160000
        k(  104) = (   0.8000000   0.0000000   0.6000000), wk =   0.0160000
        k(  105) = (   0.8000000   0.0000000   0.8000000), wk =   0.0160000
        k(  106) = (   0.8000000   0.2000000   0.0000000), wk =   0.0160000
        k(  107) = (   0.8000000   0.2000000   0.2000000), wk =   0.0160000
        k(  108) = (   0.8000000   0.2000000   0.4000000), wk =   0.0160000
        k(  109) = (   0.8000000   0.2000000   0.6000000), wk =   0.0160000
        k(  110) = (   0.8000000   0.2000000   0.8000000), wk =   0.0160000
        k(  111) = (   0.8000000   0.4000000   0.0000000), wk =   0.0160000
        k(  112) = (   0.8000000   0.4000000   0.2000000), wk =   0.0160000
        k(  113) = (   0.8000000   0.4000000   0.4000000), wk =   0.0160000
        k(  114) = (   0.8000000   0.4000000   0.6000000), wk =   0.0160000
        k(  115) = (   0.8000000   0.4000000   0.8000000), wk =   0.0160000
        k(  116) = (   0.8000000   0.6000000   0.0000000), wk =   0.0160000
        k(  117) = (   0.8000000   0.6000000   0.2000000), wk =   0.0160000
        k(  118) = (   0.8000000   0.6000000   0.4000000), wk =   0.0160000
        k(  119) = (   0.8000000   0.6000000   0.6000000), wk =   0.0160000
        k(  120) = (   0.8000000   0.6000000   0.8000000), wk =   0.0160000
        k(  121) = (   0.8000000   0.8000000   0.0000000), wk =   0.0160000
        k(  122) = (   0.8000000   0.8000000   0.2000000), wk =   0.0160000
        k(  123) = (   0.8000000   0.8000000   0.4000000), wk =   0.0160000
        k(  124) = (   0.8000000   0.8000000   0.6000000), wk =   0.0160000
        k(  125) = (   0.8000000   0.8000000   0.8000000), wk =   0.0160000

     Dense  grid:   228191 G-vectors     FFT dimensions: (  72,  72,  96)

     Smooth grid:    80831 G-vectors     FFT dimensions: (  48,  48,  72)

     Dynamical RAM for                 wfc:      15.54 MB

     Dynamical RAM for     wfc (w. buffer):      15.54 MB

     Dynamical RAM for           str. fact:      10.45 MB

     Dynamical RAM for           local pot:       0.00 MB

     Dynamical RAM for          nlocal pot:      36.92 MB

     Dynamical RAM for                qrad:       4.82 MB

     Dynamical RAM for          rho,v,vnew:      21.84 MB

     Dynamical RAM for           G-vectors:      13.67 MB

     Dynamical RAM for          h,s,v(r/c):      29.89 MB

     Dynamical RAM for          <psi|beta>:       0.37 MB

     Dynamical RAM for                 psi:     124.29 MB

     Dynamical RAM for                hpsi:     124.29 MB

     Dynamical RAM for                spsi:     124.29 MB

     Dynamical RAM for      wfcinit/wfcrot:      31.31 MB

     Dynamical RAM for           addusdens:       8.84 MB

     Estimated static dynamical RAM per process >     136.14 MB

     Estimated max dynamical RAM per process >     539.26 MB

     Estimated total dynamical RAM >      67.41 GB

     Check: negative core charge=   -0.000002

     The potential is recalculated from file :
     ./out/smo.save/charge-density

     Starting wfcs are  120 randomized atomic wfcs
     Checking if some PAW data can be deallocated... 
       PAW data deallocated on  100 nodes for type:  1
       PAW data deallocated on  100 nodes for type:  2
       PAW data deallocated on   56 nodes for type:  3

     Band Structure Calculation
     Davidson diagonalization with overlap

     Computing kpt #:     1  of     1 on this pool
     c_bands:  1 eigenvalues not converged
     total cpu time spent up to now is       37.3 secs

     ethr =  5.95E-12,  avg # of iterations = 58.0

     total cpu time spent up to now is       37.3 secs

     End of band structure calculation

          k = 0.0000 0.0000 0.0000 ( 10085 PWs)   bands (ev):

   -49.0501 -49.0493 -49.0473 -49.0462 -23.3548 -23.3528 -23.3496 -23.3380
   -23.3313 -23.3275 -23.2777 -23.2754 -23.2692 -23.2623 -23.2561 -23.2531
   -21.9589 -21.9278 -21.9206 -21.9047  -7.0013  -6.7457  -6.2944  -6.2352
    -6.1545  -6.0483  -5.9589  -5.8330  -5.4629  -5.4500  -5.3844  -5.3515
    -4.2801  -4.1860  -4.0443  -4.0000  -3.9626  -3.9336  -3.9116  -3.9016
    -3.8855  -3.6069  -3.5101  -3.4799   5.1631   5.1901   5.2309   5.3134
     5.3211   5.4366   5.6245   6.2834   6.3003   6.3043   7.2127   7.2247
     7.6419   7.7050   7.7117   7.7242   7.7542   7.7574   7.7935   7.8329
     8.0609   8.6484   8.7415   8.8542   8.9744   9.0784   9.1223   9.3689
     9.4115   9.6576   9.6713   9.7080   9.8175   9.8931  10.0040  10.0798
    11.6646  11.6998  11.7664  11.7925  13.8318  13.9975  14.1768  14.2367
    14.5875  14.8898  15.0548  15.2273  15.5248  15.6292  15.7502  15.8455
    16.1113  16.2978  16.4465  17.0604  17.2015

     occupation numbers 
     1.0000   1.0000   1.0000   1.0000   1.0000   1.0000   1.0000   1.0000
     1.0000   1.0000   1.0000   1.0000   1.0000   1.0000   1.0000   1.0000
     1.0000   1.0000   1.0000   1.0000   1.0000   1.0000   1.0000   1.0000
     1.0000   1.0000   1.0000   1.0000   1.0000   1.0000   1.0000   1.0000
     1.0000   1.0000   1.0000   1.0000   1.0000   1.0000   1.0000   1.0000
     1.0000   1.0000   1.0000   1.0000   1.0000   1.0000   1.0000   1.0000
     1.0000   1.0000   1.0000   1.0000   1.0000   1.0000   1.0000   1.0000
     1.0000   1.0000   1.0000   1.0000   1.0000   1.0000   1.0000   1.0000
     1.0000   1.0000   1.0000   1.0000   1.0000   1.0000   1.0000   1.0000
     1.0000   1.0000   1.0000   1.0000   1.0000   1.0000   1.0000   1.0000
     1.0000   1.0000   1.0000   1.0000   0.0000   0.0000   0.0000   0.0000
     0.0000   0.0000   0.0000   0.0000   0.0000   0.0000   0.0000   0.0000
     0.0000   0.0000   0.0000   0.0000   0.0000

          k = 0.0000 0.0000 0.1414 ( 10050 PWs)   bands (ev):

   -49.0501 -49.0490 -49.0474 -49.0460 -23.3533 -23.3499 -23.3460 -23.3310
   -23.3308 -23.3278 -23.2775 -23.2774 -23.2761 -23.2691 -23.2558 -23.2532
   -21.9559 -21.9307 -21.9191 -21.9062  -6.9709  -6.7523  -6.2204  -6.2050
    -6.1480  -6.0668  -5.9518  -5.7882  -5.5376  -5.5007  -5.4520  -5.4096
    -4.2487  -4.1154  -3.9965  -3.9794  -3.9686  -3.9662  -3.9021  -3.8905
    -3.8693  -3.6529  -3.5455  -3.5263   5.1657   5.1875   5.3141   5.3292
     5.5161   5.5445   5.7874   6.2017   6.3561   6.3594   7.0580   7.0806
     7.5412   7.5883   7.6570   7.7433   7.7747   7.8509   7.8791   7.9339
     8.1681   8.2869   8.8316   8.9182   8.9395   8.9600   9.0103   9.3198
     9.3703   9.4260   9.5749   9.6300   9.7894   9.8467  10.0498  10.0825
    11.7084  11.7824  11.9619  12.0502  13.7045  13.9644  14.0592  14.2996
    14.7355  14.7755  15.0687  15.2105  15.5260  15.5893  15.9145  15.9640
    16.2749  16.4294  16.7717  17.2624  17.3088

     occupation numbers 
     1.0000   1.0000   1.0000   1.0000   1.0000   1.0000   1.0000   1.0000
     1.0000   1.0000   1.0000   1.0000   1.0000   1.0000   1.0000   1.0000
     1.0000   1.0000   1.0000   1.0000   1.0000   1.0000   1.0000   1.0000
     1.0000   1.0000   1.0000   1.0000   1.0000   1.0000   1.0000   1.0000
     1.0000   1.0000   1.0000   1.0000   1.0000   1.0000   1.0000   1.0000
     1.0000   1.0000   1.0000   1.0000   1.0000   1.0000   1.0000   1.0000
     1.0000   1.0000   1.0000   1.0000   1.0000   1.0000   1.0000   1.0000
     1.0000   1.0000   1.0000   1.0000   1.0000   1.0000   1.0000   1.0000
     1.0000   1.0000   1.0000   1.0000   1.0000   1.0000   1.0000   1.0000
     1.0000   1.0000   1.0000   1.0000   1.0000   1.0000   1.0000   1.0000
     1.0000   1.0000   1.0000   1.0000   0.0000   0.0000   0.0000   0.0000
     0.0000   0.0000   0.0000   0.0000   0.0000   0.0000   0.0000   0.0000
     0.0000   0.0000   0.0000   0.0000   0.0000

          k = 0.0000 0.0000 0.2828 ( 10046 PWs)   bands (ev):

   -49.0499 -49.0493 -49.0470 -49.0463 -23.3522 -23.3509 -23.3300 -23.3288
   -23.3251 -23.3121 -23.2990 -23.2895 -23.2766 -23.2752 -23.2550 -23.2540
   -21.9480 -21.9384 -21.9151 -21.9102  -6.8919  -6.8020  -6.1292  -6.1003
    -6.0944  -6.0204  -5.9731  -5.7599  -5.6797  -5.5712  -5.5691  -5.5404
    -4.1649  -4.0581  -3.9871  -3.9755  -3.9528  -3.9023  -3.8986  -3.8248
    -3.7794  -3.7632  -3.6547  -3.6391   5.1725   5.1808   5.3469   5.3575
     5.7263   5.9877   6.1494   6.4118   6.5079   6.5191   6.7715   6.8089
     6.9616   7.2810   7.6749   7.7111   7.7268   7.7271   8.1270   8.1627
     8.2307   8.4012   8.4879   8.5464   8.6909   8.7166   9.2745   9.3490
     9.4006   9.4674   9.4690   9.5375   9.5986   9.6661  10.0824  10.0871
    11.7297  11.7576  12.6054  12.6965  13.2650  13.4094  14.2389  14.4768
    14.5078  14.7004  15.1083  15.1647  15.5314  15.5478  16.3310  16.4463
    16.8025  16.8822  16.9586  17.1280  17.3044

     occupation numbers 
     1.0000   1.0000   1.0000   1.0000   1.0000   1.0000   1.0000   1.0000
     1.0000   1.0000   1.0000   1.0000   1.0000   1.0000   1.0000   1.0000
     1.0000   1.0000   1.0000   1.0000   1.0000   1.0000   1.0000   1.0000
     1.0000   1.0000   1.0000   1.0000   1.0000   1.0000   1.0000   1.0000
     1.0000   1.0000   1.0000   1.0000   1.0000   1.0000   1.0000   1.0000
     1.0000   1.0000   1.0000   1.0000   1.0000   1.0000   1.0000   1.0000
     1.0000   1.0000   1.0000   1.0000   1.0000   1.0000   1.0000   1.0000
     1.0000   1.0000   1.0000   1.0000   1.0000   1.0000   1.0000   1.0000
     1.0000   1.0000   1.0000   1.0000   1.0000   1.0000   1.0000   1.0000
     1.0000   1.0000   1.0000   1.0000   1.0000   1.0000   1.0000   1.0000
     1.0000   1.0000   1.0000   1.0000   1.0000   0.9463   0.0000   0.0000
     0.0000   0.0000   0.0000   0.0000   0.0000   0.0000   0.0000   0.0000
     0.0000   0.0000   0.0000   0.0000   0.0000

          k = 0.0000 0.0000 0.4243 ( 10046 PWs)   bands (ev):

   -49.0499 -49.0493 -49.0470 -49.0463 -23.3522 -23.3509 -23.3300 -23.3288
   -23.3251 -23.3121 -23.2990 -23.2895 -23.2766 -23.2752 -23.2550 -23.2540
   -21.9480 -21.9384 -21.9151 -21.9102  -6.8919  -6.8020  -6.1292  -6.1003
    -6.0944  -6.0204  -5.9731  -5.7599  -5.6797  -5.5712  -5.5691  -5.5404
    -4.1649  -4.0581  -3.9871  -3.9755  -3.9528  -3.9023  -3.8986  -3.8248
    -3.7794  -3.7632  -3.6547  -3.6391   5.1725   5.1808   5.3469   5.3575
     5.7263   5.9877   6.1494   6.4118   6.5079   6.5191   6.7715   6.8089
     6.9616   7.2810   7.6749   7.7111   7.7268   7.7271   8.1270   8.1627
     8.2307   8.4012   8.4879   8.5464   8.6909   8.7166   9.2745   9.3490
     9.4006   9.4674   9.4690   9.5375   9.5986   9.6661  10.0824  10.0871
    11.7297  11.7576  12.6054  12.6965  13.2650  13.4094  14.2389  14.4768
    14.5078  14.7004  15.1083  15.1647  15.5314  15.5478  16.3310  16.4463
    16.8025  16.8822  16.9586  17.1280  17.3044

     occupation numbers 
     1.0000   1.0000   1.0000   1.0000   1.0000   1.0000   1.0000   1.0000
     1.0000   1.0000   1.0000   1.0000   1.0000   1.0000   1.0000   1.0000
     1.0000   1.0000   1.0000   1.0000   1.0000   1.0000   1.0000   1.0000
     1.0000   1.0000   1.0000   1.0000   1.0000   1.0000   1.0000   1.0000
     1.0000   1.0000   1.0000   1.0000   1.0000   1.0000   1.0000   1.0000
     1.0000   1.0000   1.0000   1.0000   1.0000   1.0000   1.0000   1.0000
     1.0000   1.0000   1.0000   1.0000   1.0000   1.0000   1.0000   1.0000
     1.0000   1.0000   1.0000   1.0000   1.0000   1.0000   1.0000   1.0000
     1.0000   1.0000   1.0000   1.0000   1.0000   1.0000   1.0000   1.0000
     1.0000   1.0000   1.0000   1.0000   1.0000   1.0000   1.0000   1.0000
     1.0000   1.0000   1.0000   1.0000   1.0000   0.9463   0.0000   0.0000
     0.0000   0.0000   0.0000   0.0000   0.0000   0.0000   0.0000   0.0000
     0.0000   0.0000   0.0000   0.0000   0.0000

          k = 0.0000 0.0000 0.5657 ( 10050 PWs)   bands (ev):

   -49.0501 -49.0490 -49.0474 -49.0460 -23.3533 -23.3499 -23.3460 -23.3310
   -23.3308 -23.3278 -23.2775 -23.2774 -23.2761 -23.2691 -23.2558 -23.2532
   -21.9559 -21.9307 -21.9191 -21.9062  -6.9709  -6.7523  -6.2204  -6.2050
    -6.1480  -6.0668  -5.9518  -5.7882  -5.5376  -5.5007  -5.4520  -5.4096
    -4.2487  -4.1154  -3.9965  -3.9794  -3.9686  -3.9662  -3.9021  -3.8905
    -3.8693  -3.6529  -3.5455  -3.5263   5.1657   5.1875   5.3141   5.3292
     5.5161   5.5445   5.7874   6.2017   6.3561   6.3594   7.0580   7.0806
     7.5412   7.5883   7.6570   7.7433   7.7747   7.8509   7.8791   7.9339
     8.1681   8.2869   8.8316   8.9182   8.9395   8.9600   9.0103   9.3198
     9.3703   9.4260   9.5749   9.6300   9.7894   9.8467  10.0498  10.0825
    11.7084  11.7824  11.9619  12.0502  13.7045  13.9644  14.0592  14.2996
    14.7355  14.7755  15.0687  15.2105  15.5260  15.5893  15.9145  15.9640
    16.2749  16.4294  16.7717  17.2624  17.3088

     occupation numbers 
     1.0000   1.0000   1.0000   1.0000   1.0000   1.0000   1.0000   1.0000
     1.0000   1.0000   1.0000   1.0000   1.0000   1.0000   1.0000   1.0000
     1.0000   1.0000   1.0000   1.0000   1.0000   1.0000   1.0000   1.0000
     1.0000   1.0000   1.0000   1.0000   1.0000   1.0000   1.0000   1.0000
     1.0000   1.0000   1.0000   1.0000   1.0000   1.0000   1.0000   1.0000
     1.0000   1.0000   1.0000   1.0000   1.0000   1.0000   1.0000   1.0000
     1.0000   1.0000   1.0000   1.0000   1.0000   1.0000   1.0000   1.0000
     1.0000   1.0000   1.0000   1.0000   1.0000   1.0000   1.0000   1.0000
     1.0000   1.0000   1.0000   1.0000   1.0000   1.0000   1.0000   1.0000
     1.0000   1.0000   1.0000   1.0000   1.0000   1.0000   1.0000   1.0000
     1.0000   1.0000   1.0000   1.0000   0.0000   0.0000   0.0000   0.0000
     0.0000   0.0000   0.0000   0.0000   0.0000   0.0000   0.0000   0.0000
     0.0000   0.0000   0.0000   0.0000   0.0000

          k = 0.0000 0.2000 0.0000 ( 10076 PWs)   bands (ev):

   -49.0499 -49.0485 -49.0480 -49.0463 -23.3522 -23.3476 -23.3427 -23.3388
   -23.3243 -23.3204 -23.2867 -23.2824 -23.2685 -23.2634 -23.2632 -23.2600
   -21.9529 -21.9266 -21.9220 -21.9080  -6.8841  -6.7493  -6.4649  -6.1931
    -6.1206  -5.9884  -5.8597  -5.8273  -5.6665  -5.5122  -5.5094  -5.4259
    -4.1938  -4.1822  -3.9981  -3.9559  -3.9493  -3.9295  -3.8843  -3.7937
    -3.7862  -3.6437  -3.5475  -3.5068   5.3085   5.3193   5.4160   5.4421
     5.5299   5.6929   5.7929   6.2019   6.3474   6.4070   6.9040   7.2603
     7.2678   7.3219   7.4126   7.4479   7.6094   7.6221   7.7173   8.4626
     8.5012   8.5111   8.6858   8.7173   8.7440   8.8807   8.9753   9.1010
     9.1586   9.2544   9.4089   9.5089   9.8399   9.8898   9.9161   9.9445
    11.9537  12.0773  12.1714  12.3054  13.8915  13.9106  14.0166  14.2056
    14.5983  14.7618  14.9378  14.9400  15.8237  16.0344  16.0400  16.0477
    16.4125  16.4830  16.5624  17.3160  17.4979

     occupation numbers 
     1.0000   1.0000   1.0000   1.0000   1.0000   1.0000   1.0000   1.0000
     1.0000   1.0000   1.0000   1.0000   1.0000   1.0000   1.0000   1.0000
     1.0000   1.0000   1.0000   1.0000   1.0000   1.0000   1.0000   1.0000
     1.0000   1.0000   1.0000   1.0000   1.0000   1.0000   1.0000   1.0000
     1.0000   1.0000   1.0000   1.0000   1.0000   1.0000   1.0000   1.0000
     1.0000   1.0000   1.0000   1.0000   1.0000   1.0000   1.0000   1.0000
     1.0000   1.0000   1.0000   1.0000   1.0000   1.0000   1.0000   1.0000
     1.0000   1.0000   1.0000   1.0000   1.0000   1.0000   1.0000   1.0000
     1.0000   1.0000   1.0000   1.0000   1.0000   1.0000   1.0000   1.0000
     1.0000   1.0000   1.0000   1.0000   1.0000   1.0000   1.0000   1.0000
     1.0000   1.0000   1.0000   1.0000   0.0000   0.0000   0.0000   0.0000
     0.0000   0.0000   0.0000   0.0000   0.0000   0.0000   0.0000   0.0000
     0.0000   0.0000   0.0000   0.0000   0.0000

          k = 0.0000 0.2000 0.1414 ( 10060 PWs)   bands (ev):

   -49.0499 -49.0487 -49.0476 -49.0463 -23.3480 -23.3435 -23.3431 -23.3316
   -23.3239 -23.3207 -23.2864 -23.2830 -23.2765 -23.2702 -23.2631 -23.2604
   -21.9503 -21.9291 -21.9207 -21.9093  -6.8593  -6.7368  -6.3990  -6.1784
    -6.1125  -6.0140  -5.8220  -5.8128  -5.7475  -5.5671  -5.5265  -5.4743
    -4.1863  -4.1296  -3.9986  -3.9853  -3.9498  -3.9103  -3.8346  -3.7979
    -3.7792  -3.6831  -3.5727  -3.5345   5.4185   5.4396   5.4743   5.5396
     5.5554   5.7475   5.8467   6.2354   6.3965   6.4060   6.9710   7.1054
     7.1448   7.3372   7.3543   7.4731   7.5764   7.6076   7.6353   8.2776
     8.3979   8.4682   8.5371   8.6390   8.8965   8.9454   8.9916   9.0704
     9.1917   9.2023   9.3613   9.3807   9.8194   9.8538   9.9064   9.9434
    12.1353  12.2251  12.2835  12.2931  13.7695  13.9681  14.0001  14.0837
    14.6717  14.7728  14.7865  14.9172  16.0165  16.0353  16.0359  16.2125
    16.6046  16.6873  16.7528  17.5251  17.6350

     occupation numbers 
     1.0000   1.0000   1.0000   1.0000   1.0000   1.0000   1.0000   1.0000
     1.0000   1.0000   1.0000   1.0000   1.0000   1.0000   1.0000   1.0000
     1.0000   1.0000   1.0000   1.0000   1.0000   1.0000   1.0000   1.0000
     1.0000   1.0000   1.0000   1.0000   1.0000   1.0000   1.0000   1.0000
     1.0000   1.0000   1.0000   1.0000   1.0000   1.0000   1.0000   1.0000
     1.0000   1.0000   1.0000   1.0000   1.0000   1.0000   1.0000   1.0000
     1.0000   1.0000   1.0000   1.0000   1.0000   1.0000   1.0000   1.0000
     1.0000   1.0000   1.0000   1.0000   1.0000   1.0000   1.0000   1.0000
     1.0000   1.0000   1.0000   1.0000   1.0000   1.0000   1.0000   1.0000
     1.0000   1.0000   1.0000   1.0000   1.0000   1.0000   1.0000   1.0000
     1.0000   1.0000   1.0000   1.0000   0.0000   0.0000   0.0000   0.0000
     0.0000   0.0000   0.0000   0.0000   0.0000   0.0000   0.0000   0.0000
     0.0000   0.0000   0.0000   0.0000   0.0000

          k = 0.0000 0.2000 0.2828 ( 10071 PWs)   bands (ev):

   -49.0495 -49.0491 -49.0473 -49.0468 -23.3462 -23.3446 -23.3234 -23.3230
   -23.3217 -23.3131 -23.2979 -23.2906 -23.2847 -23.2827 -23.2622 -23.2612
   -21.9437 -21.9355 -21.9172 -21.9128  -6.7985  -6.7429  -6.2305  -6.1219
    -6.0894  -6.0547  -5.9092  -5.8736  -5.7112  -5.6283  -5.5870  -5.5809
    -4.1467  -4.0679  -4.0352  -4.0033  -3.9061  -3.8674  -3.8281  -3.7882
    -3.7269  -3.7237  -3.6404  -3.6140   5.4250   5.4331   5.5744   5.5905
     5.8965   6.0613   6.1500   6.3693   6.5777   6.5966   6.7839   6.8441
     6.9034   7.1146   7.3855   7.4551   7.4697   7.5624   7.6821   7.7592
     8.0606   8.0720   8.5637   8.6514   8.8890   9.0360   9.1254   9.1803
     9.2131   9.2570   9.3000   9.4301   9.6282   9.6951   9.9269   9.9390
    12.2123  12.2590  12.7357  12.8117  13.3481  13.4585  14.1637  14.2781
    14.4631  14.5427  14.8100  14.8668  16.0345  16.0357  16.6031  16.6737
    17.0370  17.0757  17.1808  17.2954  17.4538

     occupation numbers 
     1.0000   1.0000   1.0000   1.0000   1.0000   1.0000   1.0000   1.0000
     1.0000   1.0000   1.0000   1.0000   1.0000   1.0000   1.0000   1.0000
     1.0000   1.0000   1.0000   1.0000   1.0000   1.0000   1.0000   1.0000
     1.0000   1.0000   1.0000   1.0000   1.0000   1.0000   1.0000   1.0000
     1.0000   1.0000   1.0000   1.0000   1.0000   1.0000   1.0000   1.0000
     1.0000   1.0000   1.0000   1.0000   1.0000   1.0000   1.0000   1.0000
     1.0000   1.0000   1.0000   1.0000   1.0000   1.0000   1.0000   1.0000
     1.0000   1.0000   1.0000   1.0000   1.0000   1.0000   1.0000   1.0000
     1.0000   1.0000   1.0000   1.0000   1.0000   1.0000   1.0000   1.0000
     1.0000   1.0000   1.0000   1.0000   1.0000   1.0000   1.0000   1.0000
     1.0000   1.0000   1.0000   1.0000   0.9972   0.6133   0.0000   0.0000
     0.0000   0.0000   0.0000   0.0000   0.0000   0.0000   0.0000   0.0000
     0.0000   0.0000   0.0000   0.0000   0.0000

          k = 0.0000 0.2000 0.4243 ( 10071 PWs)   bands (ev):

   -49.0495 -49.0491 -49.0473 -49.0468 -23.3462 -23.3446 -23.3234 -23.3230
   -23.3217 -23.3131 -23.2979 -23.2906 -23.2847 -23.2827 -23.2622 -23.2612
   -21.9437 -21.9355 -21.9172 -21.9128  -6.7985  -6.7429  -6.2305  -6.1219
    -6.0894  -6.0547  -5.9092  -5.8736  -5.7112  -5.6283  -5.5870  -5.5809
    -4.1467  -4.0679  -4.0352  -4.0033  -3.9061  -3.8674  -3.8281  -3.7882
    -3.7269  -3.7237  -3.6404  -3.6140   5.4250   5.4331   5.5744   5.5905
     5.8965   6.0613   6.1500   6.3693   6.5777   6.5966   6.7839   6.8441
     6.9034   7.1146   7.3855   7.4551   7.4697   7.5624   7.6821   7.7592
     8.0606   8.0720   8.5637   8.6514   8.8890   9.0360   9.1254   9.1803
     9.2131   9.2570   9.3000   9.4301   9.6282   9.6951   9.9269   9.9390
    12.2123  12.2590  12.7357  12.8117  13.3481  13.4585  14.1637  14.2781
    14.4631  14.5427  14.8100  14.8668  16.0345  16.0357  16.6031  16.6737
    17.0370  17.0757  17.1808  17.2954  17.4538

     occupation numbers 
     1.0000   1.0000   1.0000   1.0000   1.0000   1.0000   1.0000   1.0000
     1.0000   1.0000   1.0000   1.0000   1.0000   1.0000   1.0000   1.0000
     1.0000   1.0000   1.0000   1.0000   1.0000   1.0000   1.0000   1.0000
     1.0000   1.0000   1.0000   1.0000   1.0000   1.0000   1.0000   1.0000
     1.0000   1.0000   1.0000   1.0000   1.0000   1.0000   1.0000   1.0000
     1.0000   1.0000   1.0000   1.0000   1.0000   1.0000   1.0000   1.0000
     1.0000   1.0000   1.0000   1.0000   1.0000   1.0000   1.0000   1.0000
     1.0000   1.0000   1.0000   1.0000   1.0000   1.0000   1.0000   1.0000
     1.0000   1.0000   1.0000   1.0000   1.0000   1.0000   1.0000   1.0000
     1.0000   1.0000   1.0000   1.0000   1.0000   1.0000   1.0000   1.0000
     1.0000   1.0000   1.0000   1.0000   0.9972   0.6133   0.0000   0.0000
     0.0000   0.0000   0.0000   0.0000   0.0000   0.0000   0.0000   0.0000
     0.0000   0.0000   0.0000   0.0000   0.0000

          k = 0.0000 0.2000 0.5657 ( 10060 PWs)   bands (ev):

   -49.0499 -49.0487 -49.0476 -49.0463 -23.3480 -23.3435 -23.3431 -23.3316
   -23.3239 -23.3207 -23.2864 -23.2830 -23.2765 -23.2702 -23.2631 -23.2604
   -21.9503 -21.9291 -21.9207 -21.9093  -6.8593  -6.7368  -6.3990  -6.1784
    -6.1125  -6.0140  -5.8220  -5.8128  -5.7475  -5.5671  -5.5265  -5.4743
    -4.1863  -4.1296  -3.9986  -3.9853  -3.9498  -3.9103  -3.8346  -3.7979
    -3.7792  -3.6831  -3.5727  -3.5345   5.4185   5.4396   5.4743   5.5396
     5.5554   5.7475   5.8467   6.2354   6.3965   6.4060   6.9710   7.1054
     7.1448   7.3372   7.3543   7.4731   7.5764   7.6076   7.6353   8.2776
     8.3979   8.4682   8.5371   8.6390   8.8965   8.9454   8.9916   9.0704
     9.1917   9.2023   9.3613   9.3807   9.8194   9.8538   9.9064   9.9434
    12.1353  12.2251  12.2835  12.2931  13.7695  13.9681  14.0001  14.0837
    14.6717  14.7728  14.7865  14.9172  16.0165  16.0353  16.0359  16.2125
    16.6046  16.6873  16.7528  17.5251  17.6350

     occupation numbers 
     1.0000   1.0000   1.0000   1.0000   1.0000   1.0000   1.0000   1.0000
     1.0000   1.0000   1.0000   1.0000   1.0000   1.0000   1.0000   1.0000
     1.0000   1.0000   1.0000   1.0000   1.0000   1.0000   1.0000   1.0000
     1.0000   1.0000   1.0000   1.0000   1.0000   1.0000   1.0000   1.0000
     1.0000   1.0000   1.0000   1.0000   1.0000   1.0000   1.0000   1.0000
     1.0000   1.0000   1.0000   1.0000   1.0000   1.0000   1.0000   1.0000
     1.0000   1.0000   1.0000   1.0000   1.0000   1.0000   1.0000   1.0000
     1.0000   1.0000   1.0000   1.0000   1.0000   1.0000   1.0000   1.0000
     1.0000   1.0000   1.0000   1.0000   1.0000   1.0000   1.0000   1.0000
     1.0000   1.0000   1.0000   1.0000   1.0000   1.0000   1.0000   1.0000
     1.0000   1.0000   1.0000   1.0000   0.0000   0.0000   0.0000   0.0000
     0.0000   0.0000   0.0000   0.0000   0.0000   0.0000   0.0000   0.0000
     0.0000   0.0000   0.0000   0.0000   0.0000

          k = 0.0000 0.4000 0.0000 ( 10072 PWs)   bands (ev):

   -49.0492 -49.0486 -49.0478 -49.0471 -23.3468 -23.3418 -23.3315 -23.3245
   -23.3083 -23.3056 -23.3019 -23.3014 -23.2823 -23.2787 -23.2668 -23.2649
   -21.9396 -21.9279 -21.9225 -21.9154  -6.7452  -6.6614  -6.5589  -6.1061
    -6.0344  -6.0344  -5.9343  -5.8258  -5.7976  -5.6754  -5.6119  -5.6117
    -4.1497  -4.0780  -4.0681  -3.9930  -3.8537  -3.7886  -3.7373  -3.7252
    -3.6521  -3.6356  -3.6328  -3.5726   5.3330   5.3442   6.0296   6.0790
     6.0964   6.1279   6.2946   6.3213   6.4502   6.4993   6.7606   6.8069
     6.8614   6.8979   6.9851   7.0172   7.3452   7.4726   7.6278   7.6465
     7.9083   8.1542   8.4696   8.6856   8.7430   8.8934   8.9382   9.1066
     9.1866   9.2514   9.3023   9.3978   9.4941   9.6450   9.6499   9.8095
    12.6274  12.7739  13.0712  13.2497  13.4453  13.4720  13.9306  14.1913
    14.2338  14.3524  14.4277  14.6636  15.9949  16.2583  16.7109  17.2651
    17.2977  17.3412  17.3838  17.4562  17.8993

     occupation numbers 
     1.0000   1.0000   1.0000   1.0000   1.0000   1.0000   1.0000   1.0000
     1.0000   1.0000   1.0000   1.0000   1.0000   1.0000   1.0000   1.0000
     1.0000   1.0000   1.0000   1.0000   1.0000   1.0000   1.0000   1.0000
     1.0000   1.0000   1.0000   1.0000   1.0000   1.0000   1.0000   1.0000
     1.0000   1.0000   1.0000   1.0000   1.0000   1.0000   1.0000   1.0000
     1.0000   1.0000   1.0000   1.0000   1.0000   1.0000   1.0000   1.0000
     1.0000   1.0000   1.0000   1.0000   1.0000   1.0000   1.0000   1.0000
     1.0000   1.0000   1.0000   1.0000   1.0000   1.0000   1.0000   1.0000
     1.0000   1.0000   1.0000   1.0000   1.0000   1.0000   1.0000   1.0000
     1.0000   1.0000   1.0000   1.0000   1.0000   1.0000   1.0000   1.0000
     1.0000   1.0000   1.0000   1.0000   0.7518   0.4505   0.0000   0.0000
     0.0000   0.0000   0.0000   0.0000   0.0000   0.0000   0.0000   0.0000
     0.0000   0.0000   0.0000   0.0000   0.0000

          k = 0.0000 0.4000 0.1414 ( 10078 PWs)   bands (ev):

   -49.0492 -49.0483 -49.0482 -49.0471 -23.3397 -23.3346 -23.3305 -23.3251
   -23.3076 -23.3052 -23.3021 -23.3021 -23.2820 -23.2792 -23.2745 -23.2722
   -21.9379 -21.9267 -21.9241 -21.9165  -6.7009  -6.6035  -6.5498  -6.1453
    -6.0303  -6.0231  -5.9373  -5.8163  -5.8064  -5.7206  -5.6452  -5.6393
    -4.1218  -4.0746  -4.0683  -4.0190  -3.8582  -3.8220  -3.7604  -3.7152
    -3.6784  -3.6203  -3.5985  -3.5652   5.5619   5.5755   6.0342   6.0574
     6.0991   6.1240   6.3489   6.4341   6.4730   6.5662   6.7103   6.8237
     6.8613   6.9518   6.9842   7.0344   7.1916   7.4256   7.4436   7.4937
     7.8114   7.8991   8.3122   8.4733   8.8505   8.8942   9.0916   9.1030
     9.1664   9.3043   9.3246   9.4331   9.5119   9.6410   9.6653   9.7836
    12.7564  12.8782  13.0951  13.2547  13.5018  13.5387  13.9226  14.1226
    14.1549  14.2079  14.3888  14.4888  16.3011  16.6016  16.8287  17.2988
    17.3050  17.3328  17.4347  17.5133  17.9235

     occupation numbers 
     1.0000   1.0000   1.0000   1.0000   1.0000   1.0000   1.0000   1.0000
     1.0000   1.0000   1.0000   1.0000   1.0000   1.0000   1.0000   1.0000
     1.0000   1.0000   1.0000   1.0000   1.0000   1.0000   1.0000   1.0000
     1.0000   1.0000   1.0000   1.0000   1.0000   1.0000   1.0000   1.0000
     1.0000   1.0000   1.0000   1.0000   1.0000   1.0000   1.0000   1.0000
     1.0000   1.0000   1.0000   1.0000   1.0000   1.0000   1.0000   1.0000
     1.0000   1.0000   1.0000   1.0000   1.0000   1.0000   1.0000   1.0000
     1.0000   1.0000   1.0000   1.0000   1.0000   1.0000   1.0000   1.0000
     1.0000   1.0000   1.0000   1.0000   1.0000   1.0000   1.0000   1.0000
     1.0000   1.0000   1.0000   1.0000   1.0000   1.0000   1.0000   1.0000
     1.0000   1.0000   1.0000   1.0000   0.1599   0.0303   0.0000   0.0000
     0.0000   0.0000   0.0000   0.0000   0.0000   0.0000   0.0000   0.0000
     0.0000   0.0000   0.0000   0.0000   0.0000

          k = 0.0000 0.4000 0.2828 ( 10090 PWs)   bands (ev):

   -49.0490 -49.0484 -49.0481 -49.0474 -23.3298 -23.3272 -23.3192 -23.3159
   -23.3057 -23.3043 -23.3040 -23.3031 -23.2943 -23.2912 -23.2812 -23.2800
   -21.9336 -21.9283 -21.9235 -21.9197  -6.6080  -6.5548  -6.4439  -6.2669
    -5.9992  -5.9934  -5.9584  -5.9002  -5.7745  -5.7415  -5.7056  -5.7051
    -4.0815  -4.0689  -4.0631  -4.0525  -3.8560  -3.8343  -3.8152  -3.7916
    -3.6200  -3.5903  -3.5880  -3.5649   6.0326   6.0339   6.1063   6.1154
     6.1236   6.1386   6.4909   6.5380   6.5433   6.7433   6.7578   6.7710
     6.8421   6.9326   6.9827   6.9983   7.0821   7.1587   7.1828   7.4811
     7.4934   7.5234   7.7271   7.8590   9.0365   9.1052   9.1146   9.1692
     9.3491   9.3935   9.4256   9.5205   9.5486   9.5781   9.6256   9.6986
    13.1050  13.1873  13.1993  13.2134  13.6219  13.6777  13.7628  13.7751
    14.0857  14.1086  14.1240  14.1484  17.0166  17.2317  17.3028  17.3162
    17.3186  17.3947  17.4731  17.6464  17.8468

     occupation numbers 
     1.0000   1.0000   1.0000   1.0000   1.0000   1.0000   1.0000   1.0000
     1.0000   1.0000   1.0000   1.0000   1.0000   1.0000   1.0000   1.0000
     1.0000   1.0000   1.0000   1.0000   1.0000   1.0000   1.0000   1.0000
     1.0000   1.0000   1.0000   1.0000   1.0000   1.0000   1.0000   1.0000
     1.0000   1.0000   1.0000   1.0000   1.0000   1.0000   1.0000   1.0000
     1.0000   1.0000   1.0000   1.0000   1.0000   1.0000   1.0000   1.0000
     1.0000   1.0000   1.0000   1.0000   1.0000   1.0000   1.0000   1.0000
     1.0000   1.0000   1.0000   1.0000   1.0000   1.0000   1.0000   1.0000
     1.0000   1.0000   1.0000   1.0000   1.0000   1.0000   1.0000   1.0000
     1.0000   1.0000   1.0000   1.0000   1.0000   1.0000   1.0000   1.0000
     1.0000   1.0000   1.0000   1.0000   0.0005   0.0000   0.0000   0.0000
     0.0000   0.0000   0.0000   0.0000   0.0000   0.0000   0.0000   0.0000
     0.0000   0.0000   0.0000   0.0000   0.0000

          k = 0.0000 0.4000 0.4243 ( 10090 PWs)   bands (ev):

   -49.0490 -49.0484 -49.0481 -49.0474 -23.3298 -23.3272 -23.3192 -23.3159
   -23.3057 -23.3043 -23.3040 -23.3031 -23.2943 -23.2912 -23.2812 -23.2800
   -21.9336 -21.9283 -21.9235 -21.9197  -6.6080  -6.5548  -6.4439  -6.2669
    -5.9992  -5.9934  -5.9584  -5.9002  -5.7745  -5.7415  -5.7056  -5.7051
    -4.0815  -4.0689  -4.0631  -4.0525  -3.8560  -3.8343  -3.8152  -3.7916
    -3.6200  -3.5903  -3.5880  -3.5649   6.0326   6.0339   6.1063   6.1154
     6.1236   6.1386   6.4909   6.5380   6.5433   6.7433   6.7578   6.7710
     6.8421   6.9326   6.9827   6.9983   7.0821   7.1587   7.1828   7.4811
     7.4934   7.5234   7.7271   7.8590   9.0365   9.1052   9.1146   9.1692
     9.3491   9.3935   9.4256   9.5205   9.5486   9.5781   9.6256   9.6986
    13.1050  13.1873  13.1993  13.2134  13.6219  13.6777  13.7628  13.7751
    14.0857  14.1086  14.1240  14.1484  17.0166  17.2317  17.3028  17.3162
    17.3186  17.3947  17.4731  17.6464  17.8468

     occupation numbers 
     1.0000   1.0000   1.0000   1.0000   1.0000   1.0000   1.0000   1.0000
     1.0000   1.0000   1.0000   1.0000   1.0000   1.0000   1.0000   1.0000
     1.0000   1.0000   1.0000   1.0000   1.0000   1.0000   1.0000   1.0000
     1.0000   1.0000   1.0000   1.0000   1.0000   1.0000   1.0000   1.0000
     1.0000   1.0000   1.0000   1.0000   1.0000   1.0000   1.0000   1.0000
     1.0000   1.0000   1.0000   1.0000   1.0000   1.0000   1.0000   1.0000
     1.0000   1.0000   1.0000   1.0000   1.0000   1.0000   1.0000   1.0000
     1.0000   1.0000   1.0000   1.0000   1.0000   1.0000   1.0000   1.0000
     1.0000   1.0000   1.0000   1.0000   1.0000   1.0000   1.0000   1.0000
     1.0000   1.0000   1.0000   1.0000   1.0000   1.0000   1.0000   1.0000
     1.0000   1.0000   1.0000   1.0000   0.0005   0.0000   0.0000   0.0000
     0.0000   0.0000   0.0000   0.0000   0.0000   0.0000   0.0000   0.0000
     0.0000   0.0000   0.0000   0.0000   0.0000

          k = 0.0000 0.4000 0.5657 ( 10078 PWs)   bands (ev):

   -49.0492 -49.0483 -49.0482 -49.0471 -23.3397 -23.3346 -23.3305 -23.3251
   -23.3076 -23.3052 -23.3021 -23.3021 -23.2820 -23.2792 -23.2745 -23.2722
   -21.9379 -21.9267 -21.9241 -21.9165  -6.7009  -6.6035  -6.5498  -6.1453
    -6.0303  -6.0231  -5.9373  -5.8163  -5.8064  -5.7206  -5.6452  -5.6393
    -4.1218  -4.0746  -4.0683  -4.0190  -3.8582  -3.8220  -3.7604  -3.7152
    -3.6784  -3.6203  -3.5985  -3.5652   5.5619   5.5755   6.0342   6.0574
     6.0991   6.1240   6.3489   6.4341   6.4730   6.5662   6.7103   6.8237
     6.8613   6.9518   6.9842   7.0344   7.1916   7.4256   7.4436   7.4937
     7.8114   7.8991   8.3122   8.4733   8.8505   8.8942   9.0916   9.1030
     9.1664   9.3043   9.3246   9.4331   9.5119   9.6410   9.6653   9.7836
    12.7564  12.8782  13.0951  13.2547  13.5018  13.5387  13.9226  14.1226
    14.1549  14.2079  14.3888  14.4888  16.3011  16.6016  16.8287  17.2988
    17.3050  17.3328  17.4347  17.5133  17.9235

     occupation numbers 
     1.0000   1.0000   1.0000   1.0000   1.0000   1.0000   1.0000   1.0000
     1.0000   1.0000   1.0000   1.0000   1.0000   1.0000   1.0000   1.0000
     1.0000   1.0000   1.0000   1.0000   1.0000   1.0000   1.0000   1.0000
     1.0000   1.0000   1.0000   1.0000   1.0000   1.0000   1.0000   1.0000
     1.0000   1.0000   1.0000   1.0000   1.0000   1.0000   1.0000   1.0000
     1.0000   1.0000   1.0000   1.0000   1.0000   1.0000   1.0000   1.0000
     1.0000   1.0000   1.0000   1.0000   1.0000   1.0000   1.0000   1.0000
     1.0000   1.0000   1.0000   1.0000   1.0000   1.0000   1.0000   1.0000
     1.0000   1.0000   1.0000   1.0000   1.0000   1.0000   1.0000   1.0000
     1.0000   1.0000   1.0000   1.0000   1.0000   1.0000   1.0000   1.0000
     1.0000   1.0000   1.0000   1.0000   0.1599   0.0303   0.0000   0.0000
     0.0000   0.0000   0.0000   0.0000   0.0000   0.0000   0.0000   0.0000
     0.0000   0.0000   0.0000   0.0000   0.0000

          k = 0.0000 0.6000 0.0000 ( 10072 PWs)   bands (ev):

   -49.0492 -49.0486 -49.0478 -49.0471 -23.3468 -23.3418 -23.3315 -23.3245
   -23.3083 -23.3056 -23.3019 -23.3014 -23.2823 -23.2787 -23.2668 -23.2649
   -21.9396 -21.9279 -21.9225 -21.9154  -6.7452  -6.6614  -6.5589  -6.1061
    -6.0344  -6.0344  -5.9343  -5.8258  -5.7976  -5.6754  -5.6119  -5.6117
    -4.1497  -4.0780  -4.0681  -3.9930  -3.8537  -3.7886  -3.7373  -3.7252
    -3.6521  -3.6356  -3.6328  -3.5726   5.3330   5.3442   6.0296   6.0790
     6.0964   6.1279   6.2946   6.3213   6.4502   6.4993   6.7606   6.8069
     6.8614   6.8979   6.9851   7.0172   7.3452   7.4726   7.6278   7.6465
     7.9083   8.1542   8.4696   8.6856   8.7430   8.8934   8.9382   9.1066
     9.1866   9.2514   9.3023   9.3978   9.4941   9.6450   9.6499   9.8095
    12.6274  12.7739  13.0712  13.2497  13.4453  13.4720  13.9306  14.1913
    14.2338  14.3524  14.4277  14.6636  15.9949  16.2583  16.7109  17.2651
    17.2977  17.3412  17.3838  17.4562  17.8993

     occupation numbers 
     1.0000   1.0000   1.0000   1.0000   1.0000   1.0000   1.0000   1.0000
     1.0000   1.0000   1.0000   1.0000   1.0000   1.0000   1.0000   1.0000
     1.0000   1.0000   1.0000   1.0000   1.0000   1.0000   1.0000   1.0000
     1.0000   1.0000   1.0000   1.0000   1.0000   1.0000   1.0000   1.0000
     1.0000   1.0000   1.0000   1.0000   1.0000   1.0000   1.0000   1.0000
     1.0000   1.0000   1.0000   1.0000   1.0000   1.0000   1.0000   1.0000
     1.0000   1.0000   1.0000   1.0000   1.0000   1.0000   1.0000   1.0000
     1.0000   1.0000   1.0000   1.0000   1.0000   1.0000   1.0000   1.0000
     1.0000   1.0000   1.0000   1.0000   1.0000   1.0000   1.0000   1.0000
     1.0000   1.0000   1.0000   1.0000   1.0000   1.0000   1.0000   1.0000
     1.0000   1.0000   1.0000   1.0000   0.7518   0.4505   0.0000   0.0000
     0.0000   0.0000   0.0000   0.0000   0.0000   0.0000   0.0000   0.0000
     0.0000   0.0000   0.0000   0.0000   0.0000

          k = 0.0000 0.6000 0.1414 ( 10078 PWs)   bands (ev):

   -49.0492 -49.0483 -49.0482 -49.0471 -23.3397 -23.3346 -23.3305 -23.3251
   -23.3076 -23.3052 -23.3021 -23.3021 -23.2820 -23.2792 -23.2745 -23.2722
   -21.9379 -21.9267 -21.9241 -21.9165  -6.7009  -6.6035  -6.5498  -6.1453
    -6.0303  -6.0231  -5.9373  -5.8163  -5.8064  -5.7206  -5.6452  -5.6393
    -4.1218  -4.0746  -4.0683  -4.0190  -3.8582  -3.8220  -3.7604  -3.7152
    -3.6784  -3.6203  -3.5985  -3.5652   5.5619   5.5755   6.0342   6.0574
     6.0991   6.1240   6.3489   6.4341   6.4730   6.5662   6.7103   6.8237
     6.8613   6.9518   6.9842   7.0344   7.1916   7.4256   7.4436   7.4937
     7.8114   7.8991   8.3122   8.4733   8.8505   8.8942   9.0916   9.1030
     9.1664   9.3043   9.3246   9.4331   9.5119   9.6410   9.6653   9.7836
    12.7564  12.8782  13.0951  13.2547  13.5018  13.5387  13.9226  14.1226
    14.1549  14.2079  14.3888  14.4888  16.3011  16.6016  16.8287  17.2988
    17.3050  17.3328  17.4347  17.5133  17.9235

     occupation numbers 
     1.0000   1.0000   1.0000   1.0000   1.0000   1.0000   1.0000   1.0000
     1.0000   1.0000   1.0000   1.0000   1.0000   1.0000   1.0000   1.0000
     1.0000   1.0000   1.0000   1.0000   1.0000   1.0000   1.0000   1.0000
     1.0000   1.0000   1.0000   1.0000   1.0000   1.0000   1.0000   1.0000
     1.0000   1.0000   1.0000   1.0000   1.0000   1.0000   1.0000   1.0000
     1.0000   1.0000   1.0000   1.0000   1.0000   1.0000   1.0000   1.0000
     1.0000   1.0000   1.0000   1.0000   1.0000   1.0000   1.0000   1.0000
     1.0000   1.0000   1.0000   1.0000   1.0000   1.0000   1.0000   1.0000
     1.0000   1.0000   1.0000   1.0000   1.0000   1.0000   1.0000   1.0000
     1.0000   1.0000   1.0000   1.0000   1.0000   1.0000   1.0000   1.0000
     1.0000   1.0000   1.0000   1.0000   0.1599   0.0303   0.0000   0.0000
     0.0000   0.0000   0.0000   0.0000   0.0000   0.0000   0.0000   0.0000
     0.0000   0.0000   0.0000   0.0000   0.0000

          k = 0.0000 0.6000 0.2828 ( 10090 PWs)   bands (ev):

   -49.0490 -49.0484 -49.0481 -49.0474 -23.3298 -23.3272 -23.3192 -23.3159
   -23.3057 -23.3043 -23.3040 -23.3031 -23.2943 -23.2912 -23.2812 -23.2800
   -21.9336 -21.9283 -21.9235 -21.9197  -6.6080  -6.5548  -6.4439  -6.2669
    -5.9992  -5.9934  -5.9584  -5.9002  -5.7745  -5.7415  -5.7056  -5.7051
    -4.0815  -4.0689  -4.0631  -4.0525  -3.8560  -3.8343  -3.8152  -3.7916
    -3.6200  -3.5903  -3.5880  -3.5649   6.0326   6.0339   6.1063   6.1154
     6.1236   6.1386   6.4909   6.5380   6.5433   6.7433   6.7578   6.7710
     6.8421   6.9326   6.9827   6.9983   7.0821   7.1587   7.1828   7.4811
     7.4934   7.5234   7.7271   7.8590   9.0365   9.1052   9.1146   9.1692
     9.3491   9.3935   9.4256   9.5205   9.5486   9.5781   9.6256   9.6986
    13.1050  13.1873  13.1993  13.2134  13.6219  13.6777  13.7628  13.7751
    14.0857  14.1086  14.1240  14.1484  17.0166  17.2317  17.3028  17.3162
    17.3186  17.3947  17.4731  17.6464  17.8468

     occupation numbers 
     1.0000   1.0000   1.0000   1.0000   1.0000   1.0000   1.0000   1.0000
     1.0000   1.0000   1.0000   1.0000   1.0000   1.0000   1.0000   1.0000
     1.0000   1.0000   1.0000   1.0000   1.0000   1.0000   1.0000   1.0000
     1.0000   1.0000   1.0000   1.0000   1.0000   1.0000   1.0000   1.0000
     1.0000   1.0000   1.0000   1.0000   1.0000   1.0000   1.0000   1.0000
     1.0000   1.0000   1.0000   1.0000   1.0000   1.0000   1.0000   1.0000
     1.0000   1.0000   1.0000   1.0000   1.0000   1.0000   1.0000   1.0000
     1.0000   1.0000   1.0000   1.0000   1.0000   1.0000   1.0000   1.0000
     1.0000   1.0000   1.0000   1.0000   1.0000   1.0000   1.0000   1.0000
     1.0000   1.0000   1.0000   1.0000   1.0000   1.0000   1.0000   1.0000
     1.0000   1.0000   1.0000   1.0000   0.0005   0.0000   0.0000   0.0000
     0.0000   0.0000   0.0000   0.0000   0.0000   0.0000   0.0000   0.0000
     0.0000   0.0000   0.0000   0.0000   0.0000

          k = 0.0000 0.6000 0.4243 ( 10090 PWs)   bands (ev):

   -49.0490 -49.0484 -49.0481 -49.0474 -23.3298 -23.3272 -23.3192 -23.3159
   -23.3057 -23.3043 -23.3040 -23.3031 -23.2943 -23.2912 -23.2812 -23.2800
   -21.9336 -21.9283 -21.9235 -21.9197  -6.6080  -6.5548  -6.4439  -6.2669
    -5.9992  -5.9934  -5.9584  -5.9002  -5.7745  -5.7415  -5.7056  -5.7051
    -4.0815  -4.0689  -4.0631  -4.0525  -3.8560  -3.8343  -3.8152  -3.7916
    -3.6200  -3.5903  -3.5880  -3.5649   6.0326   6.0339   6.1063   6.1154
     6.1236   6.1386   6.4909   6.5380   6.5433   6.7433   6.7578   6.7710
     6.8421   6.9326   6.9827   6.9983   7.0821   7.1587   7.1828   7.4811
     7.4934   7.5234   7.7271   7.8590   9.0365   9.1052   9.1146   9.1692
     9.3491   9.3935   9.4256   9.5205   9.5486   9.5781   9.6256   9.6986
    13.1050  13.1873  13.1993  13.2134  13.6219  13.6777  13.7628  13.7751
    14.0857  14.1086  14.1240  14.1484  17.0166  17.2317  17.3028  17.3162
    17.3186  17.3947  17.4731  17.6464  17.8468

     occupation numbers 
     1.0000   1.0000   1.0000   1.0000   1.0000   1.0000   1.0000   1.0000
     1.0000   1.0000   1.0000   1.0000   1.0000   1.0000   1.0000   1.0000
     1.0000   1.0000   1.0000   1.0000   1.0000   1.0000   1.0000   1.0000
     1.0000   1.0000   1.0000   1.0000   1.0000   1.0000   1.0000   1.0000
     1.0000   1.0000   1.0000   1.0000   1.0000   1.0000   1.0000   1.0000
     1.0000   1.0000   1.0000   1.0000   1.0000   1.0000   1.0000   1.0000
     1.0000   1.0000   1.0000   1.0000   1.0000   1.0000   1.0000   1.0000
     1.0000   1.0000   1.0000   1.0000   1.0000   1.0000   1.0000   1.0000
     1.0000   1.0000   1.0000   1.0000   1.0000   1.0000   1.0000   1.0000
     1.0000   1.0000   1.0000   1.0000   1.0000   1.0000   1.0000   1.0000
     1.0000   1.0000   1.0000   1.0000   0.0005   0.0000   0.0000   0.0000
     0.0000   0.0000   0.0000   0.0000   0.0000   0.0000   0.0000   0.0000
     0.0000   0.0000   0.0000   0.0000   0.0000

          k = 0.0000 0.6000 0.5657 ( 10078 PWs)   bands (ev):

   -49.0492 -49.0483 -49.0482 -49.0471 -23.3397 -23.3346 -23.3305 -23.3251
   -23.3076 -23.3052 -23.3021 -23.3021 -23.2820 -23.2792 -23.2745 -23.2722
   -21.9379 -21.9267 -21.9241 -21.9165  -6.7009  -6.6035  -6.5498  -6.1453
    -6.0303  -6.0231  -5.9373  -5.8163  -5.8064  -5.7206  -5.6452  -5.6393
    -4.1218  -4.0746  -4.0683  -4.0190  -3.8582  -3.8220  -3.7604  -3.7152
    -3.6784  -3.6203  -3.5985  -3.5652   5.5619   5.5755   6.0342   6.0574
     6.0991   6.1240   6.3489   6.4341   6.4730   6.5662   6.7103   6.8237
     6.8613   6.9518   6.9842   7.0344   7.1916   7.4256   7.4436   7.4937
     7.8114   7.8991   8.3122   8.4733   8.8505   8.8942   9.0916   9.1030
     9.1664   9.3043   9.3246   9.4331   9.5119   9.6410   9.6653   9.7836
    12.7564  12.8782  13.0951  13.2547  13.5018  13.5387  13.9226  14.1226
    14.1549  14.2079  14.3888  14.4888  16.3011  16.6016  16.8287  17.2988
    17.3050  17.3328  17.4347  17.5133  17.9235

     occupation numbers 
     1.0000   1.0000   1.0000   1.0000   1.0000   1.0000   1.0000   1.0000
     1.0000   1.0000   1.0000   1.0000   1.0000   1.0000   1.0000   1.0000
     1.0000   1.0000   1.0000   1.0000   1.0000   1.0000   1.0000   1.0000
     1.0000   1.0000   1.0000   1.0000   1.0000   1.0000   1.0000   1.0000
     1.0000   1.0000   1.0000   1.0000   1.0000   1.0000   1.0000   1.0000
     1.0000   1.0000   1.0000   1.0000   1.0000   1.0000   1.0000   1.0000
     1.0000   1.0000   1.0000   1.0000   1.0000   1.0000   1.0000   1.0000
     1.0000   1.0000   1.0000   1.0000   1.0000   1.0000   1.0000   1.0000
     1.0000   1.0000   1.0000   1.0000   1.0000   1.0000   1.0000   1.0000
     1.0000   1.0000   1.0000   1.0000   1.0000   1.0000   1.0000   1.0000
     1.0000   1.0000   1.0000   1.0000   0.1599   0.0303   0.0000   0.0000
     0.0000   0.0000   0.0000   0.0000   0.0000   0.0000   0.0000   0.0000
     0.0000   0.0000   0.0000   0.0000   0.0000

          k = 0.0000 0.8000 0.0000 ( 10076 PWs)   bands (ev):

   -49.0499 -49.0485 -49.0480 -49.0463 -23.3522 -23.3476 -23.3427 -23.3388
   -23.3243 -23.3204 -23.2867 -23.2824 -23.2685 -23.2634 -23.2632 -23.2600
   -21.9529 -21.9266 -21.9220 -21.9080  -6.8841  -6.7493  -6.4649  -6.1931
    -6.1206  -5.9884  -5.8597  -5.8273  -5.6665  -5.5122  -5.5094  -5.4259
    -4.1938  -4.1822  -3.9981  -3.9559  -3.9493  -3.9295  -3.8843  -3.7937
    -3.7862  -3.6437  -3.5475  -3.5068   5.3085   5.3193   5.4160   5.4421
     5.5299   5.6929   5.7929   6.2019   6.3474   6.4070   6.9040   7.2603
     7.2678   7.3219   7.4126   7.4479   7.6094   7.6221   7.7173   8.4626
     8.5012   8.5111   8.6858   8.7173   8.7440   8.8807   8.9753   9.1010
     9.1586   9.2544   9.4089   9.5089   9.8399   9.8898   9.9161   9.9445
    11.9537  12.0773  12.1714  12.3054  13.8915  13.9106  14.0166  14.2056
    14.5983  14.7618  14.9378  14.9400  15.8237  16.0344  16.0400  16.0477
    16.4125  16.4830  16.5624  17.3160  17.4979

     occupation numbers 
     1.0000   1.0000   1.0000   1.0000   1.0000   1.0000   1.0000   1.0000
     1.0000   1.0000   1.0000   1.0000   1.0000   1.0000   1.0000   1.0000
     1.0000   1.0000   1.0000   1.0000   1.0000   1.0000   1.0000   1.0000
     1.0000   1.0000   1.0000   1.0000   1.0000   1.0000   1.0000   1.0000
     1.0000   1.0000   1.0000   1.0000   1.0000   1.0000   1.0000   1.0000
     1.0000   1.0000   1.0000   1.0000   1.0000   1.0000   1.0000   1.0000
     1.0000   1.0000   1.0000   1.0000   1.0000   1.0000   1.0000   1.0000
     1.0000   1.0000   1.0000   1.0000   1.0000   1.0000   1.0000   1.0000
     1.0000   1.0000   1.0000   1.0000   1.0000   1.0000   1.0000   1.0000
     1.0000   1.0000   1.0000   1.0000   1.0000   1.0000   1.0000   1.0000
     1.0000   1.0000   1.0000   1.0000   0.0000   0.0000   0.0000   0.0000
     0.0000   0.0000   0.0000   0.0000   0.0000   0.0000   0.0000   0.0000
     0.0000   0.0000   0.0000   0.0000   0.0000

          k = 0.0000 0.8000 0.1414 ( 10060 PWs)   bands (ev):

   -49.0499 -49.0487 -49.0476 -49.0463 -23.3480 -23.3435 -23.3431 -23.3316
   -23.3239 -23.3207 -23.2864 -23.2830 -23.2765 -23.2702 -23.2631 -23.2604
   -21.9503 -21.9291 -21.9207 -21.9093  -6.8593  -6.7368  -6.3990  -6.1784
    -6.1125  -6.0140  -5.8220  -5.8128  -5.7475  -5.5671  -5.5265  -5.4743
    -4.1863  -4.1296  -3.9986  -3.9853  -3.9498  -3.9103  -3.8346  -3.7979
    -3.7792  -3.6831  -3.5727  -3.5345   5.4185   5.4396   5.4743   5.5396
     5.5554   5.7475   5.8467   6.2354   6.3965   6.4060   6.9710   7.1054
     7.1448   7.3372   7.3543   7.4731   7.5764   7.6076   7.6353   8.2776
     8.3979   8.4682   8.5371   8.6390   8.8965   8.9454   8.9916   9.0704
     9.1917   9.2023   9.3613   9.3807   9.8194   9.8538   9.9064   9.9434
    12.1353  12.2251  12.2835  12.2931  13.7695  13.9681  14.0001  14.0837
    14.6717  14.7728  14.7865  14.9172  16.0165  16.0353  16.0359  16.2125
    16.6046  16.6873  16.7528  17.5251  17.6350

     occupation numbers 
     1.0000   1.0000   1.0000   1.0000   1.0000   1.0000   1.0000   1.0000
     1.0000   1.0000   1.0000   1.0000   1.0000   1.0000   1.0000   1.0000
     1.0000   1.0000   1.0000   1.0000   1.0000   1.0000   1.0000   1.0000
     1.0000   1.0000   1.0000   1.0000   1.0000   1.0000   1.0000   1.0000
     1.0000   1.0000   1.0000   1.0000   1.0000   1.0000   1.0000   1.0000
     1.0000   1.0000   1.0000   1.0000   1.0000   1.0000   1.0000   1.0000
     1.0000   1.0000   1.0000   1.0000   1.0000   1.0000   1.0000   1.0000
     1.0000   1.0000   1.0000   1.0000   1.0000   1.0000   1.0000   1.0000
     1.0000   1.0000   1.0000   1.0000   1.0000   1.0000   1.0000   1.0000
     1.0000   1.0000   1.0000   1.0000   1.0000   1.0000   1.0000   1.0000
     1.0000   1.0000   1.0000   1.0000   0.0000   0.0000   0.0000   0.0000
     0.0000   0.0000   0.0000   0.0000   0.0000   0.0000   0.0000   0.0000
     0.0000   0.0000   0.0000   0.0000   0.0000

          k = 0.0000 0.8000 0.2828 ( 10071 PWs)   bands (ev):

   -49.0495 -49.0491 -49.0473 -49.0468 -23.3462 -23.3446 -23.3234 -23.3230
   -23.3217 -23.3131 -23.2979 -23.2906 -23.2847 -23.2827 -23.2622 -23.2612
   -21.9437 -21.9355 -21.9172 -21.9128  -6.7985  -6.7429  -6.2305  -6.1219
    -6.0894  -6.0547  -5.9092  -5.8736  -5.7112  -5.6283  -5.5870  -5.5809
    -4.1467  -4.0679  -4.0352  -4.0033  -3.9061  -3.8674  -3.8281  -3.7882
    -3.7269  -3.7237  -3.6404  -3.6140   5.4250   5.4331   5.5744   5.5905
     5.8965   6.0613   6.1500   6.3693   6.5777   6.5966   6.7839   6.8441
     6.9034   7.1146   7.3855   7.4551   7.4697   7.5624   7.6821   7.7592
     8.0606   8.0720   8.5637   8.6514   8.8890   9.0360   9.1254   9.1803
     9.2131   9.2570   9.3000   9.4301   9.6282   9.6951   9.9269   9.9390
    12.2123  12.2590  12.7357  12.8117  13.3481  13.4585  14.1637  14.2781
    14.4631  14.5427  14.8100  14.8668  16.0345  16.0357  16.6031  16.6737
    17.0370  17.0757  17.1808  17.2954  17.4538

     occupation numbers 
     1.0000   1.0000   1.0000   1.0000   1.0000   1.0000   1.0000   1.0000
     1.0000   1.0000   1.0000   1.0000   1.0000   1.0000   1.0000   1.0000
     1.0000   1.0000   1.0000   1.0000   1.0000   1.0000   1.0000   1.0000
     1.0000   1.0000   1.0000   1.0000   1.0000   1.0000   1.0000   1.0000
     1.0000   1.0000   1.0000   1.0000   1.0000   1.0000   1.0000   1.0000
     1.0000   1.0000   1.0000   1.0000   1.0000   1.0000   1.0000   1.0000
     1.0000   1.0000   1.0000   1.0000   1.0000   1.0000   1.0000   1.0000
     1.0000   1.0000   1.0000   1.0000   1.0000   1.0000   1.0000   1.0000
     1.0000   1.0000   1.0000   1.0000   1.0000   1.0000   1.0000   1.0000
     1.0000   1.0000   1.0000   1.0000   1.0000   1.0000   1.0000   1.0000
     1.0000   1.0000   1.0000   1.0000   0.9972   0.6133   0.0000   0.0000
     0.0000   0.0000   0.0000   0.0000   0.0000   0.0000   0.0000   0.0000
     0.0000   0.0000   0.0000   0.0000   0.0000

          k = 0.0000 0.8000 0.4243 ( 10071 PWs)   bands (ev):

   -49.0495 -49.0491 -49.0473 -49.0468 -23.3462 -23.3446 -23.3234 -23.3230
   -23.3217 -23.3131 -23.2979 -23.2906 -23.2847 -23.2827 -23.2622 -23.2612
   -21.9437 -21.9355 -21.9172 -21.9128  -6.7985  -6.7429  -6.2305  -6.1219
    -6.0894  -6.0547  -5.9092  -5.8736  -5.7112  -5.6283  -5.5870  -5.5809
    -4.1467  -4.0679  -4.0352  -4.0033  -3.9061  -3.8674  -3.8281  -3.7882
    -3.7269  -3.7237  -3.6404  -3.6140   5.4250   5.4331   5.5744   5.5905
     5.8965   6.0613   6.1500   6.3693   6.5777   6.5966   6.7839   6.8441
     6.9034   7.1146   7.3855   7.4551   7.4697   7.5624   7.6821   7.7592
     8.0606   8.0720   8.5637   8.6514   8.8890   9.0360   9.1254   9.1803
     9.2131   9.2570   9.3000   9.4301   9.6282   9.6951   9.9269   9.9390
    12.2123  12.2590  12.7357  12.8117  13.3481  13.4585  14.1637  14.2781
    14.4631  14.5427  14.8100  14.8668  16.0345  16.0357  16.6031  16.6737
    17.0370  17.0757  17.1808  17.2954  17.4538

     occupation numbers 
     1.0000   1.0000   1.0000   1.0000   1.0000   1.0000   1.0000   1.0000
     1.0000   1.0000   1.0000   1.0000   1.0000   1.0000   1.0000   1.0000
     1.0000   1.0000   1.0000   1.0000   1.0000   1.0000   1.0000   1.0000
     1.0000   1.0000   1.0000   1.0000   1.0000   1.0000   1.0000   1.0000
     1.0000   1.0000   1.0000   1.0000   1.0000   1.0000   1.0000   1.0000
     1.0000   1.0000   1.0000   1.0000   1.0000   1.0000   1.0000   1.0000
     1.0000   1.0000   1.0000   1.0000   1.0000   1.0000   1.0000   1.0000
     1.0000   1.0000   1.0000   1.0000   1.0000   1.0000   1.0000   1.0000
     1.0000   1.0000   1.0000   1.0000   1.0000   1.0000   1.0000   1.0000
     1.0000   1.0000   1.0000   1.0000   1.0000   1.0000   1.0000   1.0000
     1.0000   1.0000   1.0000   1.0000   0.9972   0.6133   0.0000   0.0000
     0.0000   0.0000   0.0000   0.0000   0.0000   0.0000   0.0000   0.0000
     0.0000   0.0000   0.0000   0.0000   0.0000

          k = 0.0000 0.8000 0.5657 ( 10060 PWs)   bands (ev):

   -49.0499 -49.0487 -49.0476 -49.0463 -23.3480 -23.3435 -23.3431 -23.3316
   -23.3239 -23.3207 -23.2864 -23.2830 -23.2765 -23.2702 -23.2631 -23.2604
   -21.9503 -21.9291 -21.9207 -21.9093  -6.8593  -6.7368  -6.3990  -6.1784
    -6.1125  -6.0140  -5.8220  -5.8128  -5.7475  -5.5671  -5.5265  -5.4743
    -4.1863  -4.1296  -3.9986  -3.9853  -3.9498  -3.9103  -3.8346  -3.7979
    -3.7792  -3.6831  -3.5727  -3.5345   5.4185   5.4396   5.4743   5.5396
     5.5554   5.7475   5.8467   6.2354   6.3965   6.4060   6.9710   7.1054
     7.1448   7.3372   7.3543   7.4731   7.5764   7.6076   7.6353   8.2776
     8.3979   8.4682   8.5371   8.6390   8.8965   8.9454   8.9916   9.0704
     9.1917   9.2023   9.3613   9.3807   9.8194   9.8538   9.9064   9.9434
    12.1353  12.2251  12.2835  12.2931  13.7695  13.9681  14.0001  14.0837
    14.6717  14.7728  14.7865  14.9172  16.0165  16.0353  16.0359  16.2125
    16.6046  16.6873  16.7528  17.5251  17.6350

     occupation numbers 
     1.0000   1.0000   1.0000   1.0000   1.0000   1.0000   1.0000   1.0000
     1.0000   1.0000   1.0000   1.0000   1.0000   1.0000   1.0000   1.0000
     1.0000   1.0000   1.0000   1.0000   1.0000   1.0000   1.0000   1.0000
     1.0000   1.0000   1.0000   1.0000   1.0000   1.0000   1.0000   1.0000
     1.0000   1.0000   1.0000   1.0000   1.0000   1.0000   1.0000   1.0000
     1.0000   1.0000   1.0000   1.0000   1.0000   1.0000   1.0000   1.0000
     1.0000   1.0000   1.0000   1.0000   1.0000   1.0000   1.0000   1.0000
     1.0000   1.0000   1.0000   1.0000   1.0000   1.0000   1.0000   1.0000
     1.0000   1.0000   1.0000   1.0000   1.0000   1.0000   1.0000   1.0000
     1.0000   1.0000   1.0000   1.0000   1.0000   1.0000   1.0000   1.0000
     1.0000   1.0000   1.0000   1.0000   0.0000   0.0000   0.0000   0.0000
     0.0000   0.0000   0.0000   0.0000   0.0000   0.0000   0.0000   0.0000
     0.0000   0.0000   0.0000   0.0000   0.0000

          k = 0.2000 0.0000 0.0000 ( 10076 PWs)   bands (ev):

   -49.0499 -49.0485 -49.0480 -49.0463 -23.3520 -23.3462 -23.3424 -23.3388
[...]
    17.2445  17.4374  17.5701  17.5946  17.9313

     occupation numbers 
     1.0000   1.0000   1.0000   1.0000   1.0000   1.0000   1.0000   1.0000
     1.0000   1.0000   1.0000   1.0000   1.0000   1.0000   1.0000   1.0000
     1.0000   1.0000   1.0000   1.0000   1.0000   1.0000   1.0000   1.0000
     1.0000   1.0000   1.0000   1.0000   1.0000   1.0000   1.0000   1.0000
     1.0000   1.0000   1.0000   1.0000   1.0000   1.0000   1.0000   1.0000
     1.0000   1.0000   1.0000   1.0000   1.0000   1.0000   1.0000   1.0000
     1.0000   1.0000   1.0000   1.0000   1.0000   1.0000   1.0000   1.0000
     1.0000   1.0000   1.0000   1.0000   1.0000   1.0000   1.0000   1.0000
     1.0000   1.0000   1.0000   1.0000   1.0000   1.0000   1.0000   1.0000
     1.0000   1.0000   1.0000   1.0000   1.0000   1.0000   1.0000   1.0000
     1.0000   1.0000   0.9653   0.8615   0.1276   0.0000   0.0000   0.0000
     0.0000   0.0000   0.0000   0.0000   0.0000   0.0000   0.0000   0.0000
     0.0000   0.0000   0.0000   0.0000   0.0000

          k = 0.8000 0.6000 0.2828 ( 10093 PWs)   bands (ev):

   -49.0489 -49.0483 -49.0482 -49.0476 -23.3424 -23.3395 -23.3244 -23.3221
   -23.3172 -23.3146 -23.2941 -23.2916 -23.2878 -23.2866 -23.2688 -23.2678
   -21.9316 -21.9273 -21.9235 -21.9204  -6.6980  -6.5856  -6.5800  -6.3815
    -5.9966  -5.9390  -5.8722  -5.8464  -5.8139  -5.7339  -5.6664  -5.6569
    -4.0744  -4.0575  -3.9860  -3.9743  -3.9328  -3.8679  -3.7192  -3.6921
    -3.5994  -3.5846  -3.5754  -3.5528   5.4868   5.4926   6.0463   6.0697
     6.1102   6.1213   6.3084   6.3379   6.5112   6.6443   6.7727   6.8615
     6.9546   6.9857   7.0207   7.1700   7.2337   7.3104   7.4244   7.4346
     7.6523   7.8323   8.2186   8.3206   8.8391   8.9230   8.9652   9.0446
     9.2044   9.2448   9.2457   9.3180   9.4194   9.4469   9.6723   9.7396
    12.8296  13.2573  13.4073  13.4210  13.5594  13.6247  13.8241  13.9625
    14.1385  14.2234  14.2568  14.3864  16.4268  16.6631  17.1363  17.3311
    17.4663  17.6581  17.6617  17.7694  17.8994

     occupation numbers 
     1.0000   1.0000   1.0000   1.0000   1.0000   1.0000   1.0000   1.0000
     1.0000   1.0000   1.0000   1.0000   1.0000   1.0000   1.0000   1.0000
     1.0000   1.0000   1.0000   1.0000   1.0000   1.0000   1.0000   1.0000
     1.0000   1.0000   1.0000   1.0000   1.0000   1.0000   1.0000   1.0000
     1.0000   1.0000   1.0000   1.0000   1.0000   1.0000   1.0000   1.0000
     1.0000   1.0000   1.0000   1.0000   1.0000   1.0000   1.0000   1.0000
     1.0000   1.0000   1.0000   1.0000   1.0000   1.0000   1.0000   1.0000
     1.0000   1.0000   1.0000   1.0000   1.0000   1.0000   1.0000   1.0000
     1.0000   1.0000   1.0000   1.0000   1.0000   1.0000   1.0000   1.0000
     1.0000   1.0000   1.0000   1.0000   1.0000   1.0000   1.0000   1.0000
     1.0000   1.0000   0.9512   0.9089   0.0112   0.0005   0.0000   0.0000
     0.0000   0.0000   0.0000   0.0000   0.0000   0.0000   0.0000   0.0000
     0.0000   0.0000   0.0000   0.0000   0.0000

          k = 0.8000 0.6000 0.4243 ( 10093 PWs)   bands (ev):

   -49.0489 -49.0483 -49.0482 -49.0476 -23.3424 -23.3395 -23.3244 -23.3221
   -23.3172 -23.3146 -23.2941 -23.2916 -23.2878 -23.2866 -23.2688 -23.2678
   -21.9316 -21.9273 -21.9235 -21.9204  -6.6980  -6.5856  -6.5800  -6.3815
    -5.9966  -5.9390  -5.8722  -5.8464  -5.8139  -5.7339  -5.6664  -5.6569
    -4.0744  -4.0575  -3.9860  -3.9743  -3.9328  -3.8679  -3.7192  -3.6921
    -3.5994  -3.5846  -3.5754  -3.5528   5.4868   5.4926   6.0463   6.0697
     6.1102   6.1213   6.3084   6.3379   6.5112   6.6443   6.7727   6.8615
     6.9546   6.9857   7.0207   7.1700   7.2337   7.3104   7.4244   7.4346
     7.6523   7.8323   8.2186   8.3206   8.8391   8.9230   8.9652   9.0446
     9.2044   9.2448   9.2457   9.3180   9.4194   9.4469   9.6723   9.7396
    12.8296  13.2573  13.4073  13.4210  13.5594  13.6247  13.8241  13.9625
    14.1385  14.2234  14.2568  14.3864  16.4268  16.6631  17.1363  17.3311
    17.4663  17.6581  17.6617  17.7694  17.8994

     occupation numbers 
     1.0000   1.0000   1.0000   1.0000   1.0000   1.0000   1.0000   1.0000
     1.0000   1.0000   1.0000   1.0000   1.0000   1.0000   1.0000   1.0000
     1.0000   1.0000   1.0000   1.0000   1.0000   1.0000   1.0000   1.0000
     1.0000   1.0000   1.0000   1.0000   1.0000   1.0000   1.0000   1.0000
     1.0000   1.0000   1.0000   1.0000   1.0000   1.0000   1.0000   1.0000
     1.0000   1.0000   1.0000   1.0000   1.0000   1.0000   1.0000   1.0000
     1.0000   1.0000   1.0000   1.0000   1.0000   1.0000   1.0000   1.0000
     1.0000   1.0000   1.0000   1.0000   1.0000   1.0000   1.0000   1.0000
     1.0000   1.0000   1.0000   1.0000   1.0000   1.0000   1.0000   1.0000
     1.0000   1.0000   1.0000   1.0000   1.0000   1.0000   1.0000   1.0000
     1.0000   1.0000   0.9512   0.9089   0.0112   0.0005   0.0000   0.0000
     0.0000   0.0000   0.0000   0.0000   0.0000   0.0000   0.0000   0.0000
     0.0000   0.0000   0.0000   0.0000   0.0000

          k = 0.8000 0.6000 0.5657 ( 10093 PWs)   bands (ev):

   -49.0491 -49.0486 -49.0480 -49.0473 -23.3451 -23.3374 -23.3373 -23.3348
   -23.3251 -23.3186 -23.2887 -23.2859 -23.2742 -23.2727 -23.2696 -23.2668
   -21.9350 -21.9259 -21.9240 -21.9179  -6.8137  -6.7355  -6.5298  -6.2090
    -6.0470  -5.9203  -5.8910  -5.8726  -5.7762  -5.6771  -5.6427  -5.6374
    -4.0719  -4.0180  -3.9978  -3.9925  -3.9398  -3.8193  -3.7488  -3.6711
    -3.6190  -3.5885  -3.5859  -3.5218   5.4554   5.4814   5.5576   5.6492
     5.8990   5.9881   6.1200   6.2367   6.4450   6.7435   6.8364   6.9976
     7.1246   7.1376   7.1966   7.3116   7.3295   7.4504   7.4867   7.6839
     7.7555   8.2719   8.4567   8.6204   8.7481   8.7705   8.9646   8.9721
     9.0174   9.1186   9.1551   9.3145   9.3436   9.4250   9.7502   9.9114
    12.2950  12.9004  13.4001  13.4306  13.5071  13.8679  14.0021  14.1810
    14.1968  14.2981  14.3527  14.6205  16.0267  16.4472  16.7602  16.9833
    17.2445  17.4374  17.5701  17.5946  17.9313

     occupation numbers 
     1.0000   1.0000   1.0000   1.0000   1.0000   1.0000   1.0000   1.0000
     1.0000   1.0000   1.0000   1.0000   1.0000   1.0000   1.0000   1.0000
     1.0000   1.0000   1.0000   1.0000   1.0000   1.0000   1.0000   1.0000
     1.0000   1.0000   1.0000   1.0000   1.0000   1.0000   1.0000   1.0000
     1.0000   1.0000   1.0000   1.0000   1.0000   1.0000   1.0000   1.0000
     1.0000   1.0000   1.0000   1.0000   1.0000   1.0000   1.0000   1.0000
     1.0000   1.0000   1.0000   1.0000   1.0000   1.0000   1.0000   1.0000
     1.0000   1.0000   1.0000   1.0000   1.0000   1.0000   1.0000   1.0000
     1.0000   1.0000   1.0000   1.0000   1.0000   1.0000   1.0000   1.0000
     1.0000   1.0000   1.0000   1.0000   1.0000   1.0000   1.0000   1.0000
     1.0000   1.0000   0.9653   0.8615   0.1276   0.0000   0.0000   0.0000
     0.0000   0.0000   0.0000   0.0000   0.0000   0.0000   0.0000   0.0000
     0.0000   0.0000   0.0000   0.0000   0.0000

          k = 0.8000 0.8000 0.0000 ( 10069 PWs)   bands (ev):

   -49.0499 -49.0485 -49.0481 -49.0463 -23.3516 -23.3485 -23.3436 -23.3393
   -23.3120 -23.3079 -23.3009 -23.2951 -23.2680 -23.2640 -23.2625 -23.2588
   -21.9477 -21.9257 -21.9228 -21.9106  -6.7975  -6.7852  -6.5882  -6.1706
    -6.0238  -5.9481  -5.9009  -5.7570  -5.7472  -5.5852  -5.5803  -5.5707
    -4.0851  -4.0834  -4.0013  -3.9471  -3.9464  -3.8781  -3.8152  -3.7630
    -3.7330  -3.6848  -3.5798  -3.5007   5.2119   5.2361   5.3209   5.4322
     5.8613   6.0000   6.1720   6.3496   6.4036   6.5005   6.5236   6.9490
     7.0049   7.3376   7.3881   7.5331   7.5571   7.6944   7.7048   8.1974
     8.4389   8.4951   8.5105   8.6997   8.7151   8.7768   8.7999   8.8551
     8.9736   9.3277   9.5196   9.5382   9.6672   9.6897   9.7542   9.9461
    11.7519  12.6384  12.6690  12.7288  13.4738  13.9313  14.1348  14.2489
    14.4669  14.6283  14.7901  14.8393  15.7503  16.1563  16.2488  16.3536
    16.4328  16.6944  17.1623  17.3587  17.8846

     occupation numbers 
     1.0000   1.0000   1.0000   1.0000   1.0000   1.0000   1.0000   1.0000
     1.0000   1.0000   1.0000   1.0000   1.0000   1.0000   1.0000   1.0000
     1.0000   1.0000   1.0000   1.0000   1.0000   1.0000   1.0000   1.0000
     1.0000   1.0000   1.0000   1.0000   1.0000   1.0000   1.0000   1.0000
     1.0000   1.0000   1.0000   1.0000   1.0000   1.0000   1.0000   1.0000
     1.0000   1.0000   1.0000   1.0000   1.0000   1.0000   1.0000   1.0000
     1.0000   1.0000   1.0000   1.0000   1.0000   1.0000   1.0000   1.0000
     1.0000   1.0000   1.0000   1.0000   1.0000   1.0000   1.0000   1.0000
     1.0000   1.0000   1.0000   1.0000   1.0000   1.0000   1.0000   1.0000
     1.0000   1.0000   1.0000   1.0000   1.0000   1.0000   1.0000   1.0000
     1.0000   1.0000   1.0000   1.0000   0.4285   0.0000   0.0000   0.0000
     0.0000   0.0000   0.0000   0.0000   0.0000   0.0000   0.0000   0.0000
     0.0000   0.0000   0.0000   0.0000   0.0000

          k = 0.8000 0.8000 0.1414 ( 10067 PWs)   bands (ev):

   -49.0497 -49.0485 -49.0481 -49.0465 -23.3499 -23.3443 -23.3419 -23.3322
   -23.3117 -23.3083 -23.3003 -23.2956 -23.2759 -23.2711 -23.2621 -23.2592
   -21.9456 -21.9278 -21.9217 -21.9118  -6.7701  -6.7687  -6.5250  -6.1601
    -6.0305  -5.9720  -5.8677  -5.8509  -5.7437  -5.6283  -5.5833  -5.5784
    -4.1406  -4.0264  -3.9902  -3.9548  -3.9512  -3.8481  -3.7928  -3.7746
    -3.7299  -3.6899  -3.5999  -3.5343   5.2390   5.2455   5.5507   5.6326
     5.9060   6.0396   6.1792   6.3191   6.4780   6.4932   6.6278   6.9272
     7.0278   7.1243   7.2461   7.4658   7.4981   7.6699   7.6839   8.1201
     8.2059   8.3687   8.3789   8.6997   8.7627   8.8062   8.9385   9.0270
     9.0561   9.2658   9.3679   9.3935   9.6530   9.6977   9.7521   9.8950
    12.0338  12.6529  12.7187  12.7733  13.5627  13.8105  14.0613  14.1840
    14.4872  14.6351  14.7366  14.7723  15.8079  16.1400  16.4234  16.5867
    16.6956  16.8058  17.2104  17.5604  17.9626

     occupation numbers 
     1.0000   1.0000   1.0000   1.0000   1.0000   1.0000   1.0000   1.0000
     1.0000   1.0000   1.0000   1.0000   1.0000   1.0000   1.0000   1.0000
     1.0000   1.0000   1.0000   1.0000   1.0000   1.0000   1.0000   1.0000
     1.0000   1.0000   1.0000   1.0000   1.0000   1.0000   1.0000   1.0000
     1.0000   1.0000   1.0000   1.0000   1.0000   1.0000   1.0000   1.0000
     1.0000   1.0000   1.0000   1.0000   1.0000   1.0000   1.0000   1.0000
     1.0000   1.0000   1.0000   1.0000   1.0000   1.0000   1.0000   1.0000
     1.0000   1.0000   1.0000   1.0000   1.0000   1.0000   1.0000   1.0000
     1.0000   1.0000   1.0000   1.0000   1.0000   1.0000   1.0000   1.0000
     1.0000   1.0000   1.0000   1.0000   1.0000   1.0000   1.0000   1.0000
     1.0000   1.0000   1.0000   1.0000   0.0095   0.0000   0.0000   0.0000
     0.0000   0.0000   0.0000   0.0000   0.0000   0.0000   0.0000   0.0000
     0.0000   0.0000   0.0000   0.0000   0.0000

          k = 0.8000 0.8000 0.2828 ( 10073 PWs)   bands (ev):

   -49.0492 -49.0489 -49.0475 -49.0471 -23.3480 -23.3460 -23.3221 -23.3139
   -23.3106 -23.3094 -23.2998 -23.2975 -23.2953 -23.2895 -23.2612 -23.2602
   -21.9400 -21.9332 -21.9186 -21.9148  -6.7353  -6.7296  -6.3605  -6.1859
    -6.0055  -6.0014  -5.9869  -5.8897  -5.7314  -5.6437  -5.6404  -5.6093
    -4.1386  -4.0757  -3.9905  -3.9657  -3.8710  -3.8089  -3.7824  -3.7225
    -3.7198  -3.7072  -3.6519  -3.6198   5.2463   5.2534   6.0058   6.0830
     6.1357   6.1483   6.1959   6.3835   6.4992   6.7058   6.7748   6.7998
     6.8898   6.9081   6.9824   7.1573   7.4101   7.5593   7.6355   7.6427
     7.8933   8.1599   8.3747   8.5682   8.8288   8.9061   9.0232   9.1681
     9.1946   9.2812   9.3364   9.4521   9.5070   9.6351   9.7504   9.7754
    12.5854  12.6882  12.7629  13.1090  13.3624  13.6057  13.8323  14.2067
    14.3344  14.5583  14.6676  14.7228  15.9685  16.0836  16.8963  17.1242
    17.1499  17.3744  17.4434  17.5461  17.6523

     occupation numbers 
     1.0000   1.0000   1.0000   1.0000   1.0000   1.0000   1.0000   1.0000
     1.0000   1.0000   1.0000   1.0000   1.0000   1.0000   1.0000   1.0000
     1.0000   1.0000   1.0000   1.0000   1.0000   1.0000   1.0000   1.0000
     1.0000   1.0000   1.0000   1.0000   1.0000   1.0000   1.0000   1.0000
     1.0000   1.0000   1.0000   1.0000   1.0000   1.0000   1.0000   1.0000
     1.0000   1.0000   1.0000   1.0000   1.0000   1.0000   1.0000   1.0000
     1.0000   1.0000   1.0000   1.0000   1.0000   1.0000   1.0000   1.0000
     1.0000   1.0000   1.0000   1.0000   1.0000   1.0000   1.0000   1.0000
     1.0000   1.0000   1.0000   1.0000   1.0000   1.0000   1.0000   1.0000
     1.0000   1.0000   1.0000   1.0000   1.0000   1.0000   1.0000   1.0000
     1.0000   1.0000   1.0000   1.0000   0.9943   0.0012   0.0000   0.0000
     0.0000   0.0000   0.0000   0.0000   0.0000   0.0000   0.0000   0.0000
     0.0000   0.0000   0.0000   0.0000   0.0000

          k = 0.8000 0.8000 0.4243 ( 10073 PWs)   bands (ev):

   -49.0492 -49.0489 -49.0475 -49.0471 -23.3480 -23.3460 -23.3221 -23.3139
   -23.3106 -23.3094 -23.2998 -23.2975 -23.2953 -23.2895 -23.2612 -23.2602
   -21.9400 -21.9332 -21.9186 -21.9148  -6.7353  -6.7296  -6.3605  -6.1859
    -6.0055  -6.0014  -5.9869  -5.8897  -5.7314  -5.6437  -5.6404  -5.6093
    -4.1386  -4.0757  -3.9905  -3.9657  -3.8710  -3.8089  -3.7824  -3.7225
    -3.7198  -3.7072  -3.6519  -3.6198   5.2463   5.2534   6.0058   6.0830
     6.1357   6.1483   6.1959   6.3835   6.4992   6.7058   6.7748   6.7998
     6.8898   6.9081   6.9824   7.1573   7.4101   7.5593   7.6355   7.6427
     7.8933   8.1599   8.3747   8.5682   8.8288   8.9061   9.0232   9.1681
     9.1946   9.2812   9.3364   9.4521   9.5070   9.6351   9.7504   9.7754
    12.5854  12.6882  12.7629  13.1090  13.3624  13.6057  13.8323  14.2067
    14.3344  14.5583  14.6676  14.7228  15.9685  16.0836  16.8963  17.1242
    17.1499  17.3744  17.4434  17.5461  17.6523

     occupation numbers 
     1.0000   1.0000   1.0000   1.0000   1.0000   1.0000   1.0000   1.0000
     1.0000   1.0000   1.0000   1.0000   1.0000   1.0000   1.0000   1.0000
     1.0000   1.0000   1.0000   1.0000   1.0000   1.0000   1.0000   1.0000
     1.0000   1.0000   1.0000   1.0000   1.0000   1.0000   1.0000   1.0000
     1.0000   1.0000   1.0000   1.0000   1.0000   1.0000   1.0000   1.0000
     1.0000   1.0000   1.0000   1.0000   1.0000   1.0000   1.0000   1.0000
     1.0000   1.0000   1.0000   1.0000   1.0000   1.0000   1.0000   1.0000
     1.0000   1.0000   1.0000   1.0000   1.0000   1.0000   1.0000   1.0000
     1.0000   1.0000   1.0000   1.0000   1.0000   1.0000   1.0000   1.0000
     1.0000   1.0000   1.0000   1.0000   1.0000   1.0000   1.0000   1.0000
     1.0000   1.0000   1.0000   1.0000   0.9943   0.0012   0.0000   0.0000
     0.0000   0.0000   0.0000   0.0000   0.0000   0.0000   0.0000   0.0000
     0.0000   0.0000   0.0000   0.0000   0.0000

          k = 0.8000 0.8000 0.5657 ( 10067 PWs)   bands (ev):

   -49.0497 -49.0485 -49.0481 -49.0465 -23.3499 -23.3443 -23.3419 -23.3322
   -23.3117 -23.3083 -23.3003 -23.2956 -23.2759 -23.2711 -23.2621 -23.2592
   -21.9456 -21.9278 -21.9217 -21.9118  -6.7701  -6.7687  -6.5250  -6.1601
    -6.0305  -5.9720  -5.8677  -5.8509  -5.7437  -5.6283  -5.5833  -5.5784
    -4.1406  -4.0264  -3.9902  -3.9548  -3.9512  -3.8481  -3.7928  -3.7746
    -3.7299  -3.6899  -3.5999  -3.5343   5.2390   5.2455   5.5507   5.6326
     5.9060   6.0396   6.1792   6.3191   6.4780   6.4932   6.6278   6.9272
     7.0278   7.1243   7.2461   7.4658   7.4981   7.6699   7.6839   8.1201
     8.2059   8.3687   8.3789   8.6997   8.7627   8.8062   8.9385   9.0270
     9.0561   9.2658   9.3679   9.3935   9.6530   9.6977   9.7521   9.8950
    12.0338  12.6529  12.7187  12.7733  13.5627  13.8105  14.0613  14.1840
    14.4872  14.6351  14.7366  14.7723  15.8079  16.1400  16.4234  16.5867
    16.6956  16.8058  17.2104  17.5604  17.9626

     occupation numbers 
     1.0000   1.0000   1.0000   1.0000   1.0000   1.0000   1.0000   1.0000
     1.0000   1.0000   1.0000   1.0000   1.0000   1.0000   1.0000   1.0000
     1.0000   1.0000   1.0000   1.0000   1.0000   1.0000   1.0000   1.0000
     1.0000   1.0000   1.0000   1.0000   1.0000   1.0000   1.0000   1.0000
     1.0000   1.0000   1.0000   1.0000   1.0000   1.0000   1.0000   1.0000
     1.0000   1.0000   1.0000   1.0000   1.0000   1.0000   1.0000   1.0000
     1.0000   1.0000   1.0000   1.0000   1.0000   1.0000   1.0000   1.0000
     1.0000   1.0000   1.0000   1.0000   1.0000   1.0000   1.0000   1.0000
     1.0000   1.0000   1.0000   1.0000   1.0000   1.0000   1.0000   1.0000
     1.0000   1.0000   1.0000   1.0000   1.0000   1.0000   1.0000   1.0000
     1.0000   1.0000   1.0000   1.0000   0.0095   0.0000   0.0000   0.0000
     0.0000   0.0000   0.0000   0.0000   0.0000   0.0000   0.0000   0.0000
     0.0000   0.0000   0.0000   0.0000   0.0000

     the Fermi energy is    13.4679 ev
     (compare with:    13.4679 eV, computed in scf)
     The nscf band energy is:      -52.04966847 Ry
     Calculation interrupted for call of DMFT code

     Writing all to output data dir ./out/smo.save/ :
     XML data file, pseudopotentials, collected wavefunctions

     init_run     :      1.43s CPU      1.91s WALL (       1 calls)
     electrons    :     33.22s CPU     42.61s WALL (       1 calls)

     Called by init_run:
     wfcinit      :      0.00s CPU      0.11s WALL (       1 calls)
     wfcinit:atom :      0.02s CPU      0.03s WALL (       1 calls)
     wfcinit:wfcr :      1.02s CPU      1.02s WALL (       1 calls)
     potinit      :      0.18s CPU      0.34s WALL (       1 calls)
     hinit0       :      1.13s CPU      1.14s WALL (       1 calls)

     Called by electrons:
     c_bands      :     33.16s CPU     33.81s WALL (       1 calls)
     v_of_rho     :      0.09s CPU      0.10s WALL (       1 calls)
     v_h          :      0.04s CPU      0.04s WALL (       1 calls)
     v_xc         :      0.05s CPU      0.06s WALL (       1 calls)
     newd         :      0.04s CPU      0.12s WALL (       1 calls)
     PAW_pot      :      0.03s CPU      0.06s WALL (       1 calls)

     Called by c_bands:
     init_us_2    :      0.03s CPU      0.07s WALL (       1 calls)
     cegterg      :     31.96s CPU     32.40s WALL (       6 calls)

     Called by sum_band:

     Called by *egterg:
     cdiaghg      :      4.65s CPU      4.67s WALL (     121 calls)
     cegterg:over :      4.72s CPU      4.76s WALL (     120 calls)
     cegterg:upda :      4.28s CPU      4.34s WALL (     120 calls)
     cegterg:last :      1.48s CPU      1.48s WALL (       7 calls)
     h_psi        :     14.63s CPU     14.84s WALL (     127 calls)
     s_psi        :      2.49s CPU      2.53s WALL (     127 calls)
     g_psi        :      0.06s CPU      0.06s WALL (     120 calls)

     Called by h_psi:
     h_psi:calbec :      2.21s CPU      2.24s WALL (     127 calls)
     vloc_psi     :      9.95s CPU     10.02s WALL (     127 calls)
                                        0.00s GPU  (     127 calls)
     add_vuspsi   :      2.40s CPU      2.43s WALL (     127 calls)

     General routines
     calbec       :      2.21s CPU      2.23s WALL (     127 calls)
     fft          :      0.07s CPU      0.07s WALL (       6 calls)
     ffts         :      0.00s CPU      0.00s WALL (       1 calls)
     fftw         :      9.04s CPU      9.10s WALL (    4520 calls)
     interpolate  :      0.02s CPU      0.03s WALL (       1 calls)
     davcio       :      0.01s CPU      4.81s WALL (       2 calls)

     Parallel routines

     PAW routines
     PAW_pot      :      0.03s CPU      0.06s WALL (       1 calls)

     PWSCF        :     35.16s CPU     46.08s WALL


   This run was terminated on:  20:39:27  29Nov2025            

=------------------------------------------------------------------------------=
   JOB DONE.
=------------------------------------------------------------------------------=
