
     Program PWSCF v.7.5 starts on 29Nov2025 at 20:36:25 
        Git branch: develop
        Last git commit: 70e07caa2a5fab3dd9374bc01196f67e923fc5ea
        Last git commit date: Mon Aug 18 10:06:47 2025 +0000
        Last git commit subject: Merge branch 'stressed-by-optional-variables' into

     This program is part of the open-source Quantum ESPRESSO suite
     for quantum simulation of materials; please cite
         "P. Giannozzi et al., J. Phys.:Condens. Matter 21 395502 (2009);
         "P. Giannozzi et al., J. Phys.:Condens. Matter 29 465901 (2017);
         "P. Giannozzi et al., J. Chem. Phys. 152 154105 (2020);
          URL http://www.quantum-espresso.org", 
     in publications or presentations arising from this work. More details at
     http://www.quantum-espresso.org/quote

     Parallel version (MPI), running on   128 processors

     MPI processes distributed on     1 nodes
     985673 MiB available memory on the printing compute node when the environment starts

     Waiting for input...
     Reading input from standard input

     Current dimensions of program PWSCF are:
     Max number of different atomic species (ntypx) = 10
     Max number of k-points (npk) =  40000
     Max angular momentum in pseudopotentials (lmaxx) =  4
     file Sr.pz-spn-kjpaw_psl.1.0.0.UPF: wavefunction(s)  4P renormalized
     file Mo.pz-spn-kjpaw_psl.1.0.0.UPF: wavefunction(s)  4S 4D renormalized
     file O.pz-n-kjpaw_psl.1.0.0.UPF: wavefunction(s)  2S 2P renormalized

     Atomic positions and unit cell read from directory:
     ./out/smo.save/

     Found identity + (  0.5000 -0.5000 -0.5000) symmetry
     This is a supercell, fractional translations are disabled
     Message from routine setup:
     using ibrav=0 with symmetry is DISCOURAGED, use correct ibrav instead

     K-points division:     npool     =     128
     Subspace diagonalization in iterative solution of the eigenvalue problem:
     a serial algorithm will be used

     Message from routine divide_et_impera:
     suboptimal parallelization: some nodes have no k-points

     G-vector sticks info
     --------------------
     sticks:   dense  smooth     PW     G-vecs:    dense   smooth      PW
     Sum        5385    2701    749               419469   148351   21815

     Using Slab Decomposition



     bravais-lattice index     =            0
     lattice parameter (alat)  =      10.6088  a.u.
     unit-cell volume          =    1688.5722 (a.u.)^3
     number of atoms/cell      =           20
     number of atomic types    =            3
     number of electrons       =       168.00
     number of Kohn-Sham states=          101
     kinetic-energy cutoff     =      75.0000  Ry
     charge density cutoff     =     600.0000  Ry
     Exchange-correlation= SLA  PZ   NOGX NOGC
                           (   1   1   0   0   0   0   0)

     celldm(1)=  10.608847  celldm(2)=   0.000000  celldm(3)=   0.000000
     celldm(4)=   0.000000  celldm(5)=   0.000000  celldm(6)=   0.000000

     crystal axes: (cart. coord. in units of alat)
               a(1) = (   1.000000   0.000000   0.000000 )  
               a(2) = (   0.000000   1.000000   0.000000 )  
               a(3) = (   0.000000   0.000000   1.414214 )  

     reciprocal axes: (cart. coord. in units 2 pi/alat)
               b(1) = (  1.000000  0.000000  0.000000 )  
               b(2) = (  0.000000  1.000000  0.000000 )  
               b(3) = (  0.000000  0.000000  0.707107 )  


     PseudoPot. # 1 for Sr read from file:
     ./pseudo/Sr.pz-spn-kjpaw_psl.1.0.0.UPF
     MD5 check sum: 14b1f655f5497b386c4f305353cf4fd4
     Pseudo is Projector augmented-wave + core cor, Zval = 10.0
     Generated using 'atomic' code by A. Dal Corso  v.7.3
     Shape of augmentation charge: PSQ
     Using radial grid of 1221 points,  6 beta functions with: 
                l(1) =   0
                l(2) =   0
                l(3) =   1
                l(4) =   1
                l(5) =   2
                l(6) =   2
     Q(r) pseudized with 0 coefficients 


     PseudoPot. # 2 for Mo read from file:
     ./pseudo/Mo.pz-spn-kjpaw_psl.1.0.0.UPF
     MD5 check sum: 2e12aff744a4785a34e7548d4bec1d21
     Pseudo is Projector augmented-wave + core cor, Zval = 14.0
     Generated using 'atomic' code by A. Dal Corso  v.7.3
     Shape of augmentation charge: PSQ
     Using radial grid of 1229 points,  6 beta functions with: 
                l(1) =   0
                l(2) =   0
                l(3) =   1
                l(4) =   1
                l(5) =   2
                l(6) =   2
     Q(r) pseudized with 0 coefficients 


     PseudoPot. # 3 for O  read from file:
     ./pseudo/O.pz-n-kjpaw_psl.1.0.0.UPF
     MD5 check sum: 71a951e35f67dc87891058fc5642ed8f
     Pseudo is Projector augmented-wave + core cor, Zval =  6.0
     Generated using 'atomic' code by A. Dal Corso  v.7.3
     Shape of augmentation charge: PSQ
     Using radial grid of 1095 points,  4 beta functions with: 
                l(1) =   0
                l(2) =   0
                l(3) =   1
                l(4) =   1
     Q(r) pseudized with 0 coefficients 


     atomic species   valence    mass     pseudopotential
     Sr               10.00    87.62000     Sr( 1.00)
     Mo               14.00    95.95000     Mo( 1.00)
     O                 6.00    15.99900     O ( 1.00)

      4 Sym. Ops., with inversion, found


                                    s                        frac. trans.

      isym =  1     identity                                     

 cryst.   s( 1) = (     1          0          0      )
                  (     0          1          0      )
                  (     0          0          1      )

 cart.    s( 1) = (  1.0000000  0.0000000  0.0000000 )
                  (  0.0000000  1.0000000  0.0000000 )
                  (  0.0000000  0.0000000  1.0000000 )


      isym =  2     180 deg rotation - cart. axis [1,0,0]        

 cryst.   s( 2) = (     1          0          0      )
                  (     0         -1          0      )
                  (     0          0         -1      )

 cart.    s( 2) = (  1.0000000  0.0000000  0.0000000 )
                  (  0.0000000 -1.0000000  0.0000000 )
                  (  0.0000000  0.0000000 -1.0000000 )


      isym =  3     inversion                                    

 cryst.   s( 3) = (    -1          0          0      )
                  (     0         -1          0      )
                  (     0          0         -1      )

 cart.    s( 3) = ( -1.0000000  0.0000000  0.0000000 )
                  (  0.0000000 -1.0000000  0.0000000 )
                  (  0.0000000  0.0000000 -1.0000000 )


      isym =  4     inv. 180 deg rotation - cart. axis [1,0,0]   

 cryst.   s( 4) = (    -1          0          0      )
                  (     0          1          0      )
                  (     0          0          1      )

 cart.    s( 4) = ( -1.0000000  0.0000000  0.0000000 )
                  (  0.0000000  1.0000000  0.0000000 )
                  (  0.0000000  0.0000000  1.0000000 )


   Cartesian axes

     site n.     atom                  positions (alat units)
         1        Sr     tau(   1) = (   0.0000000   0.5000000   0.3535535  )
         2        Sr     tau(   2) = (   0.0000000   0.5000000   1.0606604  )
         3        Sr     tau(   3) = (   0.5000000   0.0000000   1.0606604  )
         4        Sr     tau(   4) = (   0.5000000   0.0000000   0.3535535  )
         5        Mo     tau(   5) = (   0.0000000   0.0000000   0.0000000  )
         6        Mo     tau(   6) = (   0.0000000   0.0000000   0.7071069  )
         7        Mo     tau(   7) = (   0.5000000   0.5000000   0.7071069  )
         8        Mo     tau(   8) = (   0.5000000   0.5000000   0.0000000  )
         9        O      tau(   9) = (   0.2500000   0.7500000  -0.0377850  )
        10        O      tau(  10) = (   0.2500000   0.2500000   0.0377850  )
        11        O      tau(  11) = (   0.7500000   0.2500000   0.6693220  )
        12        O      tau(  12) = (   0.7500000   0.7500000   0.7448919  )
        13        O      tau(  13) = (   0.7500000   0.2500000   0.0377850  )
        14        O      tau(  14) = (   0.7500000   0.7500000  -0.0377850  )
        15        O      tau(  15) = (   0.2500000   0.7500000   0.7448919  )
        16        O      tau(  16) = (   0.2500000   0.2500000   0.6693220  )
        17        O      tau(  17) = (   0.0000000  -0.0534360   0.3535535  )
        18        O      tau(  18) = (   0.0000000   0.0534360   1.0606604  )
        19        O      tau(  19) = (   0.5000000   0.4465640   1.0606604  )
        20        O      tau(  20) = (   0.5000000   0.5534360   0.3535535  )

   Crystallographic axes

     site n.     atom                  positions (cryst. coord.)
         1        Sr     tau(   1) = (  0.0000000  0.5000000  0.2500000  )
         2        Sr     tau(   2) = (  0.0000000  0.5000000  0.7500000  )
         3        Sr     tau(   3) = (  0.5000000  0.0000000  0.7500000  )
         4        Sr     tau(   4) = (  0.5000000  0.0000000  0.2500000  )
         5        Mo     tau(   5) = (  0.0000000  0.0000000  0.0000000  )
         6        Mo     tau(   6) = (  0.0000000  0.0000000  0.5000000  )
         7        Mo     tau(   7) = (  0.5000000  0.5000000  0.5000000  )
         8        Mo     tau(   8) = (  0.5000000  0.5000000  0.0000000  )
         9        O      tau(   9) = (  0.2500000  0.7500000 -0.0267180  )
        10        O      tau(  10) = (  0.2500000  0.2500000  0.0267180  )
        11        O      tau(  11) = (  0.7500000  0.2500000  0.4732820  )
        12        O      tau(  12) = (  0.7500000  0.7500000  0.5267180  )
        13        O      tau(  13) = (  0.7500000  0.2500000  0.0267180  )
        14        O      tau(  14) = (  0.7500000  0.7500000 -0.0267180  )
        15        O      tau(  15) = (  0.2500000  0.7500000  0.5267180  )
        16        O      tau(  16) = (  0.2500000  0.2500000  0.4732820  )
        17        O      tau(  17) = (  0.0000000 -0.0534360  0.2500000  )
        18        O      tau(  18) = (  0.0000000  0.0534360  0.7500000  )
        19        O      tau(  19) = (  0.5000000  0.4465640  0.7500000  )
        20        O      tau(  20) = (  0.5000000  0.5534360  0.2500000  )

     number of k points=    71  Marzari-Vanderbilt smearing, width (Ry)=  0.0147
                       cart. coord. in units 2pi/alat
        k(    1) = (   0.0000000   0.0000000   0.0000000), wk =   0.0281690
        k(    2) = (   0.0000000   0.0500000   0.0000000), wk =   0.0281690
        k(    3) = (   0.0000000   0.1000000   0.0000000), wk =   0.0281690
        k(    4) = (   0.0000000   0.1500000   0.0000000), wk =   0.0281690
        k(    5) = (   0.0000000   0.2000000   0.0000000), wk =   0.0281690
        k(    6) = (   0.0000000   0.2500000   0.0000000), wk =   0.0281690
        k(    7) = (   0.0000000   0.3000000   0.0000000), wk =   0.0281690
        k(    8) = (   0.0000000   0.3500000   0.0000000), wk =   0.0281690
        k(    9) = (   0.0000000   0.4000000   0.0000000), wk =   0.0281690
        k(   10) = (   0.0000000   0.4500000   0.0000000), wk =   0.0281690
        k(   11) = (   0.0000000   0.5000000   0.0000000), wk =   0.0281690
        k(   12) = (   0.0500000   0.5000000   0.0000000), wk =   0.0281690
        k(   13) = (   0.1000000   0.5000000   0.0000000), wk =   0.0281690
        k(   14) = (   0.1500000   0.5000000   0.0000000), wk =   0.0281690
        k(   15) = (   0.2000000   0.5000000   0.0000000), wk =   0.0281690
        k(   16) = (   0.2500000   0.5000000   0.0000000), wk =   0.0281690
        k(   17) = (   0.3000000   0.5000000   0.0000000), wk =   0.0281690
        k(   18) = (   0.3500000   0.5000000   0.0000000), wk =   0.0281690
        k(   19) = (   0.4000000   0.5000000   0.0000000), wk =   0.0281690
        k(   20) = (   0.4500000   0.5000000   0.0000000), wk =   0.0281690
        k(   21) = (   0.5000000   0.5000000   0.0000000), wk =   0.0281690
        k(   22) = (   0.4500000   0.4500000   0.0000000), wk =   0.0281690
        k(   23) = (   0.4000000   0.4000000   0.0000000), wk =   0.0281690
        k(   24) = (   0.3500000   0.3500000   0.0000000), wk =   0.0281690
        k(   25) = (   0.3000000   0.3000000   0.0000000), wk =   0.0281690
        k(   26) = (   0.2500000   0.2500000   0.0000000), wk =   0.0281690
        k(   27) = (   0.2000000   0.2000000   0.0000000), wk =   0.0281690
        k(   28) = (   0.1500000   0.1500000   0.0000000), wk =   0.0281690
        k(   29) = (   0.1000000   0.1000000   0.0000000), wk =   0.0281690
        k(   30) = (   0.0500000   0.0500000   0.0000000), wk =   0.0281690
        k(   31) = (   0.0000000   0.0000000   0.0000000), wk =   0.0281690
        k(   32) = (   0.0000000   0.0000000   0.0353553), wk =   0.0281690
        k(   33) = (   0.0000000   0.0000000   0.0707107), wk =   0.0281690
        k(   34) = (   0.0000000   0.0000000   0.1060660), wk =   0.0281690
        k(   35) = (   0.0000000   0.0000000   0.1414213), wk =   0.0281690
        k(   36) = (   0.0000000   0.0000000   0.1767767), wk =   0.0281690
        k(   37) = (   0.0000000   0.0000000   0.2121320), wk =   0.0281690
        k(   38) = (   0.0000000   0.0000000   0.2474873), wk =   0.0281690
        k(   39) = (   0.0000000   0.0000000   0.2828427), wk =   0.0281690
        k(   40) = (   0.0000000   0.0000000   0.3181980), wk =   0.0281690
        k(   41) = (   0.0000000   0.0000000   0.3535533), wk =   0.0281690
        k(   42) = (   0.0000000   0.0500000   0.3535533), wk =   0.0281690
        k(   43) = (   0.0000000   0.1000000   0.3535533), wk =   0.0281690
        k(   44) = (   0.0000000   0.1500000   0.3535533), wk =   0.0281690
        k(   45) = (   0.0000000   0.2000000   0.3535533), wk =   0.0281690
        k(   46) = (   0.0000000   0.2500000   0.3535533), wk =   0.0281690
        k(   47) = (   0.0000000   0.3000000   0.3535533), wk =   0.0281690
        k(   48) = (   0.0000000   0.3500000   0.3535533), wk =   0.0281690
        k(   49) = (   0.0000000   0.4000000   0.3535533), wk =   0.0281690
        k(   50) = (   0.0000000   0.4500000   0.3535533), wk =   0.0281690
        k(   51) = (   0.0000000   0.5000000   0.3535533), wk =   0.0281690
        k(   52) = (   0.0500000   0.5000000   0.3535533), wk =   0.0281690
        k(   53) = (   0.1000000   0.5000000   0.3535533), wk =   0.0281690
        k(   54) = (   0.1500000   0.5000000   0.3535533), wk =   0.0281690
        k(   55) = (   0.2000000   0.5000000   0.3535533), wk =   0.0281690
        k(   56) = (   0.2500000   0.5000000   0.3535533), wk =   0.0281690
        k(   57) = (   0.3000000   0.5000000   0.3535533), wk =   0.0281690
        k(   58) = (   0.3500000   0.5000000   0.3535533), wk =   0.0281690
        k(   59) = (   0.4000000   0.5000000   0.3535533), wk =   0.0281690
        k(   60) = (   0.4500000   0.5000000   0.3535533), wk =   0.0281690
        k(   61) = (   0.5000000   0.5000000   0.3535533), wk =   0.0281690
        k(   62) = (   0.4500000   0.4500000   0.3535533), wk =   0.0281690
        k(   63) = (   0.4000000   0.4000000   0.3535533), wk =   0.0281690
        k(   64) = (   0.3500000   0.3500000   0.3535533), wk =   0.0281690
        k(   65) = (   0.3000000   0.3000000   0.3535533), wk =   0.0281690
        k(   66) = (   0.2500000   0.2500000   0.3535533), wk =   0.0281690
        k(   67) = (   0.2000000   0.2000000   0.3535533), wk =   0.0281690
        k(   68) = (   0.1500000   0.1500000   0.3535533), wk =   0.0281690
        k(   69) = (   0.1000000   0.1000000   0.3535533), wk =   0.0281690
        k(   70) = (   0.0500000   0.0500000   0.3535533), wk =   0.0281690
        k(   71) = (   0.0000000   0.0000000   0.3535533), wk =   0.0281690

                       cryst. coord.
        k(    1) = (   0.0000000   0.0000000   0.0000000), wk =   0.0281690
        k(    2) = (   0.0000000   0.0500000   0.0000000), wk =   0.0281690
        k(    3) = (   0.0000000   0.1000000   0.0000000), wk =   0.0281690
        k(    4) = (   0.0000000   0.1500000   0.0000000), wk =   0.0281690
        k(    5) = (   0.0000000   0.2000000   0.0000000), wk =   0.0281690
        k(    6) = (   0.0000000   0.2500000   0.0000000), wk =   0.0281690
        k(    7) = (   0.0000000   0.3000000   0.0000000), wk =   0.0281690
        k(    8) = (   0.0000000   0.3500000   0.0000000), wk =   0.0281690
        k(    9) = (   0.0000000   0.4000000   0.0000000), wk =   0.0281690
        k(   10) = (   0.0000000   0.4500000   0.0000000), wk =   0.0281690
        k(   11) = (   0.0000000   0.5000000   0.0000000), wk =   0.0281690
        k(   12) = (   0.0500000   0.5000000   0.0000000), wk =   0.0281690
        k(   13) = (   0.1000000   0.5000000   0.0000000), wk =   0.0281690
        k(   14) = (   0.1500000   0.5000000   0.0000000), wk =   0.0281690
        k(   15) = (   0.2000000   0.5000000   0.0000000), wk =   0.0281690
        k(   16) = (   0.2500000   0.5000000   0.0000000), wk =   0.0281690
        k(   17) = (   0.3000000   0.5000000   0.0000000), wk =   0.0281690
        k(   18) = (   0.3500000   0.5000000   0.0000000), wk =   0.0281690
        k(   19) = (   0.4000000   0.5000000   0.0000000), wk =   0.0281690
        k(   20) = (   0.4500000   0.5000000   0.0000000), wk =   0.0281690
        k(   21) = (   0.5000000   0.5000000   0.0000000), wk =   0.0281690
        k(   22) = (   0.4500000   0.4500000   0.0000000), wk =   0.0281690
        k(   23) = (   0.4000000   0.4000000   0.0000000), wk =   0.0281690
        k(   24) = (   0.3500000   0.3500000   0.0000000), wk =   0.0281690
        k(   25) = (   0.3000000   0.3000000   0.0000000), wk =   0.0281690
        k(   26) = (   0.2500000   0.2500000   0.0000000), wk =   0.0281690
        k(   27) = (   0.2000000   0.2000000   0.0000000), wk =   0.0281690
        k(   28) = (   0.1500000   0.1500000   0.0000000), wk =   0.0281690
        k(   29) = (   0.1000000   0.1000000   0.0000000), wk =   0.0281690
        k(   30) = (   0.0500000   0.0500000   0.0000000), wk =   0.0281690
        k(   31) = (   0.0000000   0.0000000   0.0000000), wk =   0.0281690
        k(   32) = (   0.0000000   0.0000000   0.0500000), wk =   0.0281690
        k(   33) = (   0.0000000   0.0000000   0.1000000), wk =   0.0281690
        k(   34) = (   0.0000000   0.0000000   0.1500000), wk =   0.0281690
        k(   35) = (   0.0000000   0.0000000   0.2000000), wk =   0.0281690
        k(   36) = (   0.0000000   0.0000000   0.2500000), wk =   0.0281690
        k(   37) = (   0.0000000   0.0000000   0.3000000), wk =   0.0281690
        k(   38) = (   0.0000000   0.0000000   0.3500000), wk =   0.0281690
        k(   39) = (   0.0000000   0.0000000   0.4000000), wk =   0.0281690
        k(   40) = (   0.0000000   0.0000000   0.4500000), wk =   0.0281690
        k(   41) = (   0.0000000   0.0000000   0.5000000), wk =   0.0281690
        k(   42) = (   0.0000000   0.0500000   0.5000000), wk =   0.0281690
        k(   43) = (   0.0000000   0.1000000   0.5000000), wk =   0.0281690
        k(   44) = (   0.0000000   0.1500000   0.5000000), wk =   0.0281690
        k(   45) = (   0.0000000   0.2000000   0.5000000), wk =   0.0281690
        k(   46) = (   0.0000000   0.2500000   0.5000000), wk =   0.0281690
        k(   47) = (   0.0000000   0.3000000   0.5000000), wk =   0.0281690
        k(   48) = (   0.0000000   0.3500000   0.5000000), wk =   0.0281690
        k(   49) = (   0.0000000   0.4000000   0.5000000), wk =   0.0281690
        k(   50) = (   0.0000000   0.4500000   0.5000000), wk =   0.0281690
        k(   51) = (   0.0000000   0.5000000   0.5000000), wk =   0.0281690
        k(   52) = (   0.0500000   0.5000000   0.5000000), wk =   0.0281690
        k(   53) = (   0.1000000   0.5000000   0.5000000), wk =   0.0281690
        k(   54) = (   0.1500000   0.5000000   0.5000000), wk =   0.0281690
        k(   55) = (   0.2000000   0.5000000   0.5000000), wk =   0.0281690
        k(   56) = (   0.2500000   0.5000000   0.5000000), wk =   0.0281690
        k(   57) = (   0.3000000   0.5000000   0.5000000), wk =   0.0281690
        k(   58) = (   0.3500000   0.5000000   0.5000000), wk =   0.0281690
        k(   59) = (   0.4000000   0.5000000   0.5000000), wk =   0.0281690
        k(   60) = (   0.4500000   0.5000000   0.5000000), wk =   0.0281690
        k(   61) = (   0.5000000   0.5000000   0.5000000), wk =   0.0281690
        k(   62) = (   0.4500000   0.4500000   0.5000000), wk =   0.0281690
        k(   63) = (   0.4000000   0.4000000   0.5000000), wk =   0.0281690
        k(   64) = (   0.3500000   0.3500000   0.5000000), wk =   0.0281690
        k(   65) = (   0.3000000   0.3000000   0.5000000), wk =   0.0281690
        k(   66) = (   0.2500000   0.2500000   0.5000000), wk =   0.0281690
        k(   67) = (   0.2000000   0.2000000   0.5000000), wk =   0.0281690
        k(   68) = (   0.1500000   0.1500000   0.5000000), wk =   0.0281690
        k(   69) = (   0.1000000   0.1000000   0.5000000), wk =   0.0281690
        k(   70) = (   0.0500000   0.0500000   0.5000000), wk =   0.0281690
        k(   71) = (   0.0000000   0.0000000   0.5000000), wk =   0.0281690

     Dense  grid:   419469 G-vectors     FFT dimensions: (  90,  90, 120)

     Smooth grid:   148351 G-vectors     FFT dimensions: (  60,  60,  90)

     Dynamical RAM for                 wfc:      28.54 MB

     Dynamical RAM for     wfc (w. buffer):      28.54 MB

     Dynamical RAM for           str. fact:      19.20 MB

     Dynamical RAM for           local pot:       0.00 MB

     Dynamical RAM for          nlocal pot:      67.83 MB

     Dynamical RAM for                qrad:       5.90 MB

     Dynamical RAM for          rho,v,vnew:      41.45 MB

     Dynamical RAM for           G-vectors:      25.13 MB

     Dynamical RAM for          h,s,v(r/c):       1.87 MB

     Dynamical RAM for          <psi|beta>:       0.37 MB

     Dynamical RAM for                 psi:      57.09 MB

     Dynamical RAM for                hpsi:      57.09 MB

     Dynamical RAM for                spsi:      57.09 MB

     Dynamical RAM for      wfcinit/wfcrot:      57.32 MB

     Dynamical RAM for           addusdens:      16.25 MB

     Estimated static dynamical RAM per process >     250.73 MB

     Estimated max dynamical RAM per process >     424.23 MB

     Estimated total dynamical RAM >      53.03 GB

     The potential is recalculated from file :
     ./out/smo.save/charge-density

     Starting wfcs are  120 randomized atomic wfcs
     Checking if some PAW data can be deallocated... 
       PAW data deallocated on  100 nodes for type:  1
       PAW data deallocated on  100 nodes for type:  2
       PAW data deallocated on   56 nodes for type:  3

     Band Structure Calculation
     Davidson diagonalization with overlap

     Computing kpt #:     1  of     1 on this pool
     c_bands:  2 eigenvalues not converged
     total cpu time spent up to now is      104.2 secs

     ethr =  2.38E-13,  avg # of iterations =119.9

     total cpu time spent up to now is      115.2 secs

     End of band structure calculation

          k = 0.0000 0.0000 0.0000 ( 18577 PWs)   bands (ev):

   -49.0609 -49.0596 -49.0583 -49.0570 -23.3572 -23.3554 -23.3521 -23.3405
   -23.3340 -23.3300 -23.2803 -23.2777 -23.2717 -23.2648 -23.2587 -23.2554
   -21.9598 -21.9286 -21.9214 -21.9056  -7.0021  -6.7466  -6.2952  -6.2360
    -6.1553  -6.0491  -5.9597  -5.8337  -5.4636  -5.4507  -5.3851  -5.3523
    -4.2811  -4.1871  -4.0454  -4.0010  -3.9635  -3.9345  -3.9127  -3.9025
    -3.8865  -3.6080  -3.5111  -3.4809   5.1596   5.1865   5.2273   5.3099
     5.3177   5.4339   5.6210   6.2804   6.2974   6.3014   7.2097   7.2217
     7.6389   7.7021   7.7085   7.7209   7.7512   7.7544   7.7904   7.8300
     8.0580   8.6451   8.7383   8.8509   8.9709   9.0748   9.1188   9.3653
     9.4078   9.6539   9.6676   9.7042   9.8139   9.8895  10.0003  10.0761
    11.6615  11.6967  11.7632  11.7892  13.8281  13.9936  14.1729  14.2327
    14.5834  14.8856  15.0508  15.2231  15.5206  15.6251  15.7494  15.8417
    16.1107  16.2970  16.4429  17.0598  17.2009

          k = 0.0000 0.0500 0.0000 ( 18595 PWs)   bands (ev):

   -49.0609 -49.0596 -49.0583 -49.0570 -23.3571 -23.3551 -23.3516 -23.3405
   -23.3335 -23.3296 -23.2808 -23.2782 -23.2717 -23.2649 -23.2591 -23.2559
   -21.9594 -21.9286 -21.9215 -21.9058  -6.9947  -6.7468  -6.3116  -6.2338
    -6.1531  -6.0452  -5.9458  -5.8354  -5.4778  -5.4554  -5.3941  -5.3571
    -4.2745  -4.1870  -4.0371  -3.9980  -3.9659  -3.9356  -3.9111  -3.8939
    -3.8801  -3.6103  -3.5135  -3.4827   5.1758   5.2026   5.2348   5.3103
     5.3324   5.4489   5.6298   6.2877   6.2939   6.3003   7.2165   7.2245
     7.5383   7.6234   7.6564   7.6987   7.7333   7.7488   7.7812   7.9958
     8.1233   8.6478   8.7311   8.8566   8.9320   9.0493   9.1168   9.3284
     9.3861   9.6171   9.6560   9.6775   9.8254   9.8948   9.9956  10.0671
    11.6811  11.7317  11.7840  11.8274  13.8316  13.9914  14.1742  14.2188
    14.5864  14.8991  15.0316  15.2034  15.5526  15.6438  15.7675  15.8400
    16.1346  16.3134  16.4412  17.0767  17.2315

          k = 0.0000 0.1000 0.0000 ( 18565 PWs)   bands (ev):

   -49.0608 -49.0595 -49.0584 -49.0571 -23.3565 -23.3541 -23.3503 -23.3407
   -23.3321 -23.3282 -23.2826 -23.2795 -23.2716 -23.2650 -23.2605 -23.2573
   -21.9582 -21.9284 -21.9217 -21.9064  -6.9724  -6.7474  -6.3533  -6.2267
    -6.1465  -6.0338  -5.9116  -5.8405  -5.5189  -5.4686  -5.4198  -5.3715
    -4.2558  -4.1867  -4.0133  -3.9892  -3.9729  -3.9386  -3.9062  -3.8691
    -3.8613  -3.6174  -3.5206  -3.4881   5.2240   5.2506   5.2547   5.3115
     5.3749   5.4951   5.6578   6.2724   6.3090   6.3100   7.2329   7.2371
     7.3203   7.5298   7.5780   7.6717   7.6863   7.7418   7.7522   8.1996
     8.2504   8.6559   8.7119   8.8228   8.8752   8.9776   9.1116   9.2237
     9.3261   9.5252   9.6070   9.6227   9.8421   9.9047   9.9786  10.0406
    11.7385  11.8311  11.8453  11.9356  13.8425  13.9812  14.1772  14.1788
    14.5933  14.9281  14.9745  15.1460  15.6493  15.7083  15.8058  15.8516
    16.2063  16.3628  16.4357  17.1265  17.3086

          k = 0.0000 0.1500 0.0000 ( 18557 PWs)   bands (ev):

   -49.0608 -49.0594 -49.0584 -49.0571 -23.3557 -23.3524 -23.3482 -23.3409
   -23.3299 -23.3260 -23.2854 -23.2818 -23.2714 -23.2653 -23.2628 -23.2595
   -21.9562 -21.9280 -21.9222 -21.9074  -6.9357  -6.7485  -6.4076  -6.2138
    -6.1359  -6.0150  -5.8695  -5.8489  -5.5836  -5.4886  -5.4598  -5.3950
    -4.2280  -4.1857  -3.9841  -3.9766  -3.9752  -3.9435  -3.8978  -3.8320
    -3.8319  -3.6290  -3.5323  -3.4966   5.2806   5.3035   5.3133   5.3298
     5.4410   5.5750   5.7096   6.2394   6.3236   6.3482   7.1055   7.2465
     7.2712   7.3923   7.5053   7.5736   7.6588   7.6998   7.7302   8.3826
     8.3847   8.6599   8.6695   8.6917   8.8707   8.9113   9.0659   9.1048
     9.2421   9.3985   9.5102   9.5709   9.8473   9.9117   9.9432   9.9978
    11.8299  11.9438  11.9816  12.0991  13.8612  13.9553  14.1082  14.1874
    14.5983  14.8821  14.9469  15.0546  15.8100  15.8134  15.8360  15.9296
    16.3239  16.4255  16.4456  17.2072  17.3912

          k = 0.0000 0.2000 0.0000 ( 18509 PWs)   bands (ev):

   -49.0606 -49.0593 -49.0585 -49.0572 -23.3547 -23.3501 -23.3452 -23.3413
   -23.3268 -23.3229 -23.2892 -23.2849 -23.2711 -23.2659 -23.2656 -23.2626
   -21.9537 -21.9274 -21.9228 -21.9088  -6.8849  -6.7502  -6.4657  -6.1939
    -6.1214  -5.9892  -5.8605  -5.8281  -5.6673  -5.5130  -5.5102  -5.4267
    -4.1949  -4.1833  -3.9991  -3.9568  -3.9503  -3.9305  -3.8853  -3.7947
    -3.7872  -3.6447  -3.5486  -3.5077   5.3050   5.3158   5.4125   5.4386
     5.5266   5.6900   5.7894   6.1991   6.3445   6.4040   6.9012   7.2573
     7.2647   7.3189   7.4097   7.4449   7.6063   7.6190   7.7143   8.4593
     8.4980   8.5079   8.6824   8.7140   8.7406   8.8772   8.9720   9.0975
     9.1550   9.2509   9.4052   9.5053   9.8363   9.8861   9.9124   9.9408
    11.9504  12.0740  12.1682  12.3019  13.8877  13.9067  14.0127  14.2017
    14.5943  14.7580  14.9338  14.9359  15.8197  16.0301  16.0358  16.0471
    16.4089  16.4824  16.5615  17.3153  17.4971

          k = 0.0000 0.2500 0.0000 ( 18505 PWs)   bands (ev):

   -49.0605 -49.0592 -49.0587 -49.0574 -23.3535 -23.3470 -23.3418 -23.3415
   -23.3230 -23.3192 -23.2938 -23.2888 -23.2708 -23.2698 -23.2664 -23.2660
   -21.9507 -21.9267 -21.9238 -21.9104  -6.8209  -6.7519  -6.5228  -6.1661
    -6.1035  -5.9567  -5.8751  -5.7921  -5.7654  -5.5669  -5.5394  -5.4656
    -4.1789  -4.1601  -4.0169  -3.9588  -3.9349  -3.8790  -3.8684  -3.7527
    -3.7400  -3.6639  -3.5691  -3.5212   5.3187   5.3230   5.5490   5.5752
     5.6296   5.8386   5.8970   6.1568   6.3719   6.4800   6.7126   7.1293
     7.2825   7.2923   7.3001   7.3794   7.5056   7.5185   7.6946   8.2327
     8.5210   8.5863   8.5972   8.6023   8.7637   8.8316   9.0609   9.0852
     9.0865   9.0948   9.3135   9.4301   9.8078   9.8088   9.8725   9.9044
    12.0948  12.2288  12.3782  12.5302  13.8324  13.8924  13.9218  14.2233
    14.5754  14.6078  14.7878  14.8935  15.8400  16.1890  16.2989  16.3009
    16.3843  16.6735  16.7101  17.4460  17.6195

          k = 0.0000 0.3000 0.0000 ( 18523 PWs)   bands (ev):

   -49.0604 -49.0591 -49.0588 -49.0575 -23.3522 -23.3432 -23.3425 -23.3371
   -23.3185 -23.3148 -23.2991 -23.2933 -23.2743 -23.2709 -23.2704 -23.2664
   -21.9474 -21.9258 -21.9250 -21.9123  -6.7527  -6.7446  -6.5757  -6.1300
    -6.0828  -5.9183  -5.8927  -5.8738  -5.7659  -5.6243  -5.5656  -5.5104
    -4.1722  -4.1265  -4.0368  -3.9689  -3.9101  -3.8467  -3.8259  -3.7099
    -3.6957  -3.6864  -3.5937  -3.5368   5.3221   5.3341   5.7103   5.7372
     5.7490   6.0172   6.0268   6.1182   6.4063   6.5448   6.5793   7.0105
     7.1227   7.1686   7.3111   7.3585   7.3833   7.4585   7.6719   7.9883
     8.3786   8.4478   8.4961   8.6496   8.7873   8.9420   8.9779   9.0527
     9.0535   9.1714   9.2626   9.3493   9.7121   9.7662   9.7963   9.8852
    12.2582  12.4009  12.6022  12.7730  13.7329  13.7505  13.9602  14.2540
    14.4394  14.5395  14.6200  14.8275  15.8769  16.3498  16.3505  16.6080
    16.6105  16.8870  16.8908  17.5936  17.7519

          k = 0.0000 0.3500 0.0000 ( 18495 PWs)   bands (ev):

   -49.0602 -49.0590 -49.0589 -49.0577 -23.3508 -23.3433 -23.3389 -23.3322
   -23.3135 -23.3098 -23.3048 -23.2984 -23.2793 -23.2759 -23.2699 -23.2669
   -21.9439 -21.9267 -21.9247 -21.9142  -6.7513  -6.6571  -6.6225  -6.0861
    -6.0598  -5.9887  -5.9127  -5.8746  -5.7615  -5.6682  -5.5903  -5.5599
    -4.1628  -4.0959  -4.0578  -3.9807  -3.8831  -3.8202  -3.7741  -3.7113
    -3.6700  -3.6587  -3.6219  -3.5545   5.3257   5.3394   5.8831   5.8930
     5.9215   6.0895   6.1700   6.2212   6.4026   6.4479   6.7052   6.9018
     6.9425   7.0341   7.1814   7.2148   7.3323   7.5437   7.6476   7.7322
     8.1370   8.2978   8.4738   8.6978   8.8020   8.8336   8.9973   9.0595
     9.1187   9.2637   9.2660   9.2887   9.6043   9.7101   9.7174   9.8528
    12.4360  12.5834  12.8336  13.0203  13.5923  13.6105  13.9873  14.2728
    14.2955  14.4333  14.4876  14.7470  15.9287  16.3071  16.5250  16.9426
    16.9462  17.1063  17.1125  17.6218  17.7497

          k = 0.0000 0.4000 0.0000 ( 18530 PWs)   bands (ev):

   -49.0600 -49.0592 -49.0587 -49.0579 -23.3494 -23.3443 -23.3339 -23.3269
   -23.3108 -23.3081 -23.3044 -23.3038 -23.2848 -23.2813 -23.2694 -23.2674
   -21.9404 -21.9287 -21.9233 -21.9162  -6.7460  -6.6622  -6.5598  -6.1069
    -6.0352  -6.0352  -5.9350  -5.8266  -5.7984  -5.6762  -5.6126  -5.6125
    -4.1507  -4.0790  -4.0692  -3.9940  -3.8547  -3.7896  -3.7383  -3.7262
    -3.6531  -3.6366  -3.6338  -3.5736   5.3295   5.3407   6.0266   6.0762
     6.0929   6.1244   6.2918   6.3180   6.4472   6.4964   6.7576   6.8040
     6.8583   6.8949   6.9818   7.0139   7.3422   7.4695   7.6247   7.6435
     7.9050   8.1510   8.4664   8.6822   8.7397   8.8900   8.9348   9.1031
     9.1830   9.2480   9.2987   9.3943   9.4905   9.6414   9.6463   9.8059
    12.6240  12.7704  13.0679  13.2461  13.4416  13.4682  13.9270  14.1875
    14.2300  14.3485  14.4238  14.6597  15.9910  16.2545  16.7099  17.2630
    17.2935  17.3403  17.3807  17.4550  17.8981

          k = 0.0000 0.4500 0.0000 ( 18522 PWs)   bands (ev):

   -49.0598 -49.0594 -49.0585 -49.0581 -23.3480 -23.3454 -23.3286 -23.3213
   -23.3168 -23.3096 -23.3024 -23.2987 -23.2906 -23.2870 -23.2689 -23.2679
   -21.9370 -21.9311 -21.9218 -21.9182  -6.7355  -6.6943  -6.4542  -6.2256
    -6.0097  -5.9788  -5.9590  -5.8566  -5.7752  -5.6668  -5.6652  -5.6324
    -4.1359  -4.0996  -4.0461  -4.0091  -3.8255  -3.7667  -3.7562  -3.6866
    -3.6839  -3.6289  -3.6124  -3.5893   5.3332   5.3394   6.0827   6.1324
     6.2609   6.3041   6.3415   6.4653   6.5473   6.5735   6.6890   6.7185
     6.7533   6.7734   6.7943   7.0322   7.2049   7.3136   7.6102   7.7173
     7.7552   8.0104   8.4806   8.5875   8.7813   8.8771   8.9545   9.1023
     9.1760   9.3522   9.3646   9.3769   9.4467   9.5610   9.6208   9.7447
    12.8176  12.9566  13.1972  13.3013  13.3094  13.5512  13.7469  14.0123
    14.2179  14.3532  14.4132  14.5718  16.0589  16.1940  16.8998  17.2764
    17.5389  17.5612  17.6312  17.7298  17.9368

          k = 0.0000 0.5000 0.0000 ( 18550 PWs)   bands (ev):

   -49.0596 -49.0596 -49.0583 -49.0583 -23.3467 -23.3467 -23.3228 -23.3228
   -23.3154 -23.3154 -23.2965 -23.2965 -23.2929 -23.2929 -23.2684 -23.2684
   -21.9339 -21.9339 -21.9200 -21.9200  -6.7186  -6.7185  -6.3421  -6.3421
    -5.9841  -5.9841  -5.9185  -5.9185  -5.7215  -5.7215  -5.6498  -5.6498
    -4.1187  -4.1187  -4.0263  -4.0263  -3.7959  -3.7959  -3.7214  -3.7214
    -3.6494  -3.6494  -3.5983  -3.5983   5.3367   5.3367   6.1099   6.1099
     6.3973   6.3973   6.5081   6.5081   6.5672   6.5672   6.6102   6.6102
     6.6581   6.6581   6.9432   6.9432   7.2026   7.2026   7.6245   7.6245
     7.8779   7.8779   8.5203   8.5203   8.8263   8.8263   9.0256   9.0257
     9.2698   9.2698   9.4117   9.4117   9.4688   9.4688   9.6740   9.6740
    13.0120  13.0120  13.1377  13.1377  13.5299  13.5299  13.7834  13.7834
    14.2817  14.2817  14.4884  14.4884  16.1278  16.1278  17.0901  17.0901
    17.7648  17.7648  17.8075  17.8075  17.9058

          k = 0.0500 0.5000 0.0000 ( 18528 PWs)   bands (ev):

   -49.0596 -49.0596 -49.0583 -49.0583 -23.3466 -23.3466 -23.3246 -23.3246
   -23.3171 -23.3171 -23.2948 -23.2948 -23.2912 -23.2912 -23.2684 -23.2684
   -21.9338 -21.9338 -21.9201 -21.9201  -6.7293  -6.7293  -6.3417  -6.3417
    -5.9859  -5.9859  -5.9088  -5.9088  -5.7237  -5.7237  -5.6500  -5.6499
    -4.1128  -4.1128  -4.0240  -4.0240  -3.8047  -3.8047  -3.7202  -3.7202
    -3.6401  -3.6401  -3.5961  -3.5961   5.3362   5.3362   6.0782   6.0782
     6.2805   6.2805   6.3972   6.3972   6.5923   6.5923   6.6851   6.6851
     6.7487   6.7487   6.9887   6.9887   7.2358   7.2358   7.6367   7.6367
     7.8739   7.8739   8.5099   8.5099   8.8330   8.8330   9.0340   9.0341
     9.2568   9.2568   9.3591   9.3591   9.4627   9.4628   9.7010   9.7010
    12.8937  12.8937  13.2490  13.2490  13.5457  13.5457  13.7988  13.7988
    14.2727  14.2727  14.5002  14.5002  16.1188  16.1188  17.0992  17.0992
    17.7061  17.7061  17.8134  17.8134  17.8341

          k = 0.1000 0.5000 0.0000 ( 18512 PWs)   bands (ev):

   -49.0596 -49.0596 -49.0583 -49.0583 -23.3466 -23.3466 -23.3288 -23.3288
   -23.3211 -23.3211 -23.2907 -23.2907 -23.2872 -23.2872 -23.2684 -23.2684
   -21.9333 -21.9333 -21.9203 -21.9203  -6.7587  -6.7587  -6.3407  -6.3407
    -5.9903  -5.9903  -5.8856  -5.8856  -5.7301  -5.7301  -5.6477  -5.6477
    -4.0959  -4.0959  -4.0176  -4.0176  -3.8256  -3.8256  -3.7166  -3.7166
    -3.6190  -3.6190  -3.5879  -3.5879   5.3345   5.3345   5.9988   5.9988
     6.1097   6.1097   6.1996   6.1996   6.6849   6.6849   6.7524   6.7524
     6.8558   6.8558   7.1028   7.1028   7.3232   7.3232   7.6810   7.6810
     7.8623   7.8623   8.4792   8.4792   8.8538   8.8538   9.0575   9.0575
     9.2202   9.2202   9.2577   9.2577   9.4135   9.4135   9.7603   9.7603
    12.7271  12.7271  13.3948  13.3948  13.5902  13.5902  13.8433  13.8433
    14.2507  14.2507  14.5298  14.5298  16.0909  16.0909  17.1250  17.1250
    17.6308  17.6308  17.6320  17.6320  17.8401

          k = 0.1500 0.5000 0.0000 ( 18510 PWs)   bands (ev):

   -49.0596 -49.0596 -49.0583 -49.0583 -23.3465 -23.3465 -23.3339 -23.3339
   -23.3259 -23.3258 -23.2858 -23.2858 -23.2825 -23.2825 -23.2684 -23.2684
   -21.9327 -21.9327 -21.9206 -21.9206  -6.8006  -6.8006  -6.3391  -6.3391
    -5.9960  -5.9960  -5.8623  -5.8623  -5.7400  -5.7400  -5.6357  -5.6357
    -4.0708  -4.0708  -4.0079  -4.0079  -3.8509  -3.8509  -3.7108  -3.7108
    -3.5994  -3.5994  -3.5686  -3.5686   5.3314   5.3314   5.8916   5.8916
     5.9437   5.9437   6.0081   6.0081   6.7665   6.7665   6.8426   6.8426
     6.9218   6.9218   7.2413   7.2413   7.4177   7.4177   7.7774   7.7774
     7.8453   7.8453   8.4303   8.4303   8.8890   8.8890   9.0851   9.0851
     9.1358   9.1358   9.1725   9.1725   9.3317   9.3317   9.8239   9.8239
    12.5590  12.5590  13.5293  13.5293  13.6555  13.6555  13.9117  13.9117
    14.2240  14.2240  14.5674  14.5674  16.0434  16.0434  17.1632  17.1632
    17.4239  17.4239  17.5792  17.5792  17.8341

          k = 0.2000 0.5000 0.0000 ( 18506 PWs)   bands (ev):

   -49.0596 -49.0596 -49.0583 -49.0583 -23.3467 -23.3467 -23.3390 -23.3389
   -23.3307 -23.3307 -23.2809 -23.2809 -23.2777 -23.2777 -23.2683 -23.2683
   -21.9318 -21.9318 -21.9209 -21.9209  -6.8481  -6.8481  -6.3370  -6.3370
    -6.0025  -6.0025  -5.8515  -5.8514  -5.7523  -5.7523  -5.6067  -5.6067
    -4.0412  -4.0412  -3.9965  -3.9965  -3.8765  -3.8765  -3.7028  -3.7028
    -3.5845  -3.5845  -3.5398  -3.5398   5.3262   5.3262   5.7520   5.7520
     5.8151   5.8151   5.8325   5.8325   6.8535   6.8535   6.9399   6.9399
     6.9690   6.9690   7.3730   7.3730   7.4816   7.4816   7.8194   7.8194
     7.9337   7.9337   8.3675   8.3675   8.9323   8.9323   8.9966   8.9966
     9.0577   9.0577   9.1754   9.1754   9.2454   9.2454   9.8807   9.8807
    12.3963  12.3963  13.6478  13.6478  13.7306  13.7306  13.9954  13.9955
    14.1982  14.1982  14.6055  14.6055  15.9790  15.9790  17.2064  17.2064
    17.2132  17.2132  17.5575  17.5575  17.8279

          k = 0.2500 0.5000 0.0000 ( 18562 PWs)   bands (ev):

   -49.0596 -49.0596 -49.0583 -49.0583 -23.3479 -23.3479 -23.3426 -23.3426
   -23.3351 -23.3351 -23.2763 -23.2763 -23.2733 -23.2733 -23.2682 -23.2682
   -21.9309 -21.9309 -21.9213 -21.9213  -6.8956  -6.8956  -6.3347  -6.3347
    -6.0094  -6.0094  -5.8553  -5.8552  -5.7656  -5.7656  -5.5627  -5.5627
    -4.0115  -4.0115  -3.9848  -3.9848  -3.9000  -3.9000  -3.6932  -3.6932
    -3.5691  -3.5691  -3.5099  -3.5099   5.3172   5.3172   5.6077   5.6077
     5.6800   5.6800   5.7124   5.7124   6.9517   6.9517   7.0093   7.0093
     7.0368   7.0368   7.4828   7.4828   7.5225   7.5225   7.7940   7.7940
     8.1108   8.1108   8.2960   8.2960   8.8380   8.8380   8.9593   8.9593
     8.9801   8.9801   9.1969   9.1969   9.2268   9.2269   9.9273   9.9273
    12.2444  12.2444  13.7494  13.7494  13.8031  13.8031  14.0841  14.0841
    14.1773  14.1773  14.6388  14.6388  15.9055  15.9055  17.0114  17.0114
    17.2473  17.2473  17.5666  17.5666  17.8234

          k = 0.3000 0.5000 0.0000 ( 18510 PWs)   bands (ev):

   -49.0596 -49.0596 -49.0583 -49.0583 -23.3508 -23.3508 -23.3439 -23.3439
   -23.3390 -23.3390 -23.2723 -23.2723 -23.2700 -23.2700 -23.2676 -23.2676
   -21.9300 -21.9300 -21.9217 -21.9217  -6.9389  -6.9389  -6.3324  -6.3324
    -6.0160  -6.0160  -5.8676  -5.8675  -5.7787  -5.7787  -5.5131  -5.5131
    -3.9857  -3.9857  -3.9742  -3.9742  -3.9198  -3.9198  -3.6827  -3.6827
    -3.5521  -3.5521  -3.4828  -3.4828   5.3015   5.3015   5.4813   5.4813
     5.5581   5.5581   5.6235   5.6235   7.0466   7.0466   7.0550   7.0550
     7.1361   7.1361   7.5540   7.5540   7.5657   7.5657   7.7666   7.7666
     8.2200   8.2200   8.2839   8.2839   8.6666   8.6666   8.8960   8.8960
     8.9356   8.9356   9.2238   9.2238   9.2861   9.2861   9.9630   9.9630
    12.1084  12.1084  13.8335  13.8336  13.8616  13.8616  14.1647  14.1647
    14.1678  14.1678  14.6642  14.6642  15.8337  15.8337  16.8296  16.8296
    17.2828  17.2828  17.5976  17.5976  17.8186

          k = 0.3500 0.5000 0.0000 ( 18498 PWs)   bands (ev):

   -49.0596 -49.0596 -49.0583 -49.0583 -23.3541 -23.3541 -23.3440 -23.3440
   -23.3422 -23.3422 -23.2691 -23.2691 -23.2689 -23.2689 -23.2655 -23.2655
   -21.9291 -21.9291 -21.9220 -21.9220  -6.9752  -6.9751  -6.3303  -6.3303
    -6.0218  -6.0218  -5.8821  -5.8821  -5.7903  -5.7903  -5.4665  -5.4665
    -3.9688  -3.9688  -3.9654  -3.9654  -3.9322  -3.9322  -3.6726  -3.6726
    -3.5346  -3.5346  -3.4606  -3.4606   5.2748   5.2749   5.3790   5.3790
     5.4743   5.4743   5.5502   5.5502   7.0802   7.0802   7.1425   7.1425
     7.2537   7.2537   7.5819   7.5819   7.6227   7.6227   7.7388   7.7388
     8.1402   8.1402   8.4345   8.4345   8.4948   8.4948   8.8178   8.8178
     8.8883   8.8883   9.2930   9.2930   9.3429   9.3429   9.9884   9.9884
    11.9937  11.9937  13.8990  13.8990  13.8994  13.8994  14.1621  14.1621
    14.2391  14.2391  14.6808  14.6808  15.7731  15.7731  16.6778  16.6778
    17.3126  17.3126  17.6383  17.6383  17.8114

          k = 0.4000 0.5000 0.0000 ( 18490 PWs)   bands (ev):

   -49.0596 -49.0596 -49.0583 -49.0583 -23.3567 -23.3567 -23.3446 -23.3446
   -23.3440 -23.3440 -23.2687 -23.2687 -23.2668 -23.2668 -23.2633 -23.2633
   -21.9284 -21.9284 -21.9223 -21.9223  -7.0023  -7.0023  -6.3286  -6.3286
    -6.0263  -6.0263  -5.8949  -5.8949  -5.7994  -5.7994  -5.4292  -5.4292
    -3.9667  -3.9667  -3.9590  -3.9590  -3.9317  -3.9317  -3.6642  -3.6642
    -3.5190  -3.5190  -3.4445  -3.4445   5.2397   5.2397   5.3040   5.3040
     5.4287   5.4287   5.4954   5.4954   7.1078   7.1078   7.2028   7.2028
     7.3944   7.3944   7.6084   7.6084   7.6580   7.6580   7.7115   7.7115
     8.0476   8.0476   8.3471   8.3471   8.5500   8.5500   8.7548   8.7548
     8.8469   8.8469   9.3634   9.3634   9.3901   9.3901  10.0045  10.0045
    11.9061  11.9061  13.9167  13.9167  13.9462  13.9462  14.1660  14.1660
    14.2930  14.2930  14.6902  14.6902  15.7295  15.7295  16.5637  16.5637
    17.3363  17.3363  17.6785  17.6785  17.8007

          k = 0.4500 0.5000 0.0000 ( 18536 PWs)   bands (ev):

   -49.0596 -49.0596 -49.0583 -49.0583 -23.3583 -23.3583 -23.3460 -23.3460
   -23.3439 -23.3439 -23.2687 -23.2686 -23.2653 -23.2653 -23.2619 -23.2619
   -21.9280 -21.9280 -21.9225 -21.9225  -7.0191  -7.0191  -6.3275  -6.3275
    -6.0291  -6.0291  -5.9034  -5.9034  -5.8052  -5.8052  -5.4052  -5.4052
    -3.9712  -3.9712  -3.9551  -3.9551  -3.9262  -3.9262  -3.6586  -3.6586
    -3.5081  -3.5081  -3.4348  -3.4348   5.2104   5.2104   5.2582   5.2582
     5.4088   5.4088   5.4615   5.4615   7.1261   7.1262   7.2385   7.2385
     7.5429   7.5429   7.6342   7.6342   7.6766   7.6767   7.6852   7.6852
     7.9303   7.9303   8.2542   8.2542   8.6210   8.6210   8.7153   8.7153
     8.8203   8.8203   9.4135   9.4135   9.4215   9.4215  10.0130  10.0130
    11.8509  11.8509  13.9224  13.9224  13.9739  13.9739  14.1707  14.1707
    14.3264  14.3264  14.6949  14.6949  15.7039  15.7039  16.4931  16.4931
    17.3519  17.3519  17.7111  17.7112  17.7872

          k = 0.5000 0.5000 0.0000 ( 18544 PWs)   bands (ev):

   -49.0596 -49.0596 -49.0583 -49.0583 -23.3588 -23.3588 -23.3465 -23.3465
   -23.3439 -23.3439 -23.2686 -23.2686 -23.2649 -23.2649 -23.2615 -23.2615
   -21.9279 -21.9279 -21.9226 -21.9226  -7.0248  -7.0248  -6.3271  -6.3271
    -6.0301  -6.0301  -5.9064  -5.9063  -5.8072  -5.8072  -5.3969  -5.3969
    -3.9732  -3.9732  -3.9538  -3.9538  -3.9239  -3.9239  -3.6566  -3.6566
    -3.5041  -3.5041  -3.4316  -3.4316   5.1993   5.1993   5.2428   5.2428
     5.4033   5.4033   5.4501   5.4501   7.1326   7.1326   7.2504   7.2504
     7.6378   7.6378   7.6587   7.6587   7.6605   7.6605   7.6819   7.6819
     7.8442   7.8442   8.2250   8.2250   8.6432   8.6432   8.7035   8.7035
     8.8113   8.8113   9.4316   9.4316   9.4325   9.4325  10.0156  10.0156
    11.8321  11.8321  13.9234  13.9234  13.9831  13.9831  14.1726  14.1726
    14.3377  14.3377  14.6963  14.6963  15.6956  15.6956  16.4692  16.4692
    17.3574  17.3574  17.7261  17.7261  17.7788

          k = 0.4500 0.4500 0.0000 ( 18524 PWs)   bands (ev):

   -49.0596 -49.0596 -49.0583 -49.0583 -23.3586 -23.3569 -23.3464 -23.3446
   -23.3442 -23.3437 -23.2688 -23.2686 -23.2668 -23.2649 -23.2633 -23.2615
   -21.9286 -21.9277 -21.9227 -21.9221  -7.0159  -7.0095  -6.3471  -6.3070
    -6.0380  -6.0250  -5.8980  -5.8951  -5.8090  -5.7998  -5.4184  -5.4126
    -3.9749  -3.9601  -3.9557  -3.9540  -3.9291  -3.9246  -3.6668  -3.6563
    -3.5150  -3.5149  -3.4424  -3.4334   5.1996   5.2392   5.2424   5.3051
     5.4050   5.4274   5.4701   5.4779   7.0957   7.1458   7.2067   7.2325
     7.4066   7.6200   7.6258   7.6476   7.6490   7.6521   7.7171   7.7220
     7.8691   8.0316   8.2525   8.2990   8.5416   8.6501   8.7018   8.7546
     8.8037   8.8567   9.3578   9.3874   9.4334   9.4346  10.0039  10.0135
    11.8286  11.9105  13.9150  13.9274  13.9567  13.9658  14.1503  14.1850
    14.3015  14.3374  14.6923  14.6986  15.6972  15.7258  16.4664  16.5649
    17.3086  17.3872  17.6628  17.7512  17.7515

          k = 0.4000 0.4000 0.0000 ( 18494 PWs)   bands (ev):

   -49.0597 -49.0595 -49.0584 -49.0582 -23.3579 -23.3513 -23.3463 -23.3450
   -23.3430 -23.3392 -23.2723 -23.2701 -23.2683 -23.2677 -23.2650 -23.2616
   -21.9308 -21.9273 -21.9231 -21.9209  -6.9901  -6.9647  -6.4028  -6.2483
    -6.0576  -6.0099  -5.8788  -5.8623  -5.8172  -5.7780  -5.4773  -5.4567
    -3.9803  -3.9616  -3.9544  -3.9436  -3.9334  -3.9168  -3.6964  -3.6539
    -3.5468  -3.5445  -3.4741  -3.4404   5.2007   5.2414   5.2978   5.4097
     5.4859   5.5289   5.5547   5.5610   6.9936   6.9989   7.0945   7.1837
     7.3285   7.5369   7.5943   7.6171   7.6175   7.6257   7.7985   7.8153
     7.9432   8.1512   8.2578   8.3220   8.4860   8.6703   8.6987   8.8219
     8.8937   8.9803   9.1875   9.2724   9.4381   9.4434   9.9616  10.0071
    11.8188  12.1241  13.8414  13.8554  13.8908  13.9379  14.1287  14.2158
    14.2217  14.3541  14.6788  14.6890  15.7018  15.8259  16.4558  16.8266
    17.1718  17.4701  17.5083  17.6408  17.8334

          k = 0.3500 0.3500 0.0000 ( 18530 PWs)   bands (ev):

   -49.0599 -49.0593 -49.0586 -49.0580 -23.3568 -23.3464 -23.3460 -23.3453
   -23.3392 -23.3308 -23.2809 -23.2777 -23.2690 -23.2680 -23.2652 -23.2617
   -21.9343 -21.9265 -21.9238 -21.9191  -6.9499  -6.8941  -6.4848  -6.1551
    -6.0833  -5.9861  -5.8627  -5.8359  -5.8108  -5.7426  -5.5549  -5.5213
    -3.9926  -3.9729  -3.9624  -3.9547  -3.9347  -3.8657  -3.7417  -3.6460
    -3.5973  -3.5881  -3.5242  -3.4537   5.2023   5.2398   5.3173   5.4166
     5.6192   5.6977   5.7702   5.8266   6.6679   6.8699   6.9498   7.2412
     7.3175   7.3652   7.5569   7.5721   7.5820   7.6242   7.8727   7.9156
     7.9420   8.0653   8.2337   8.4164   8.5067   8.6860   8.7171   8.9544
     9.0760   9.0840   9.1283   9.1514   9.4487   9.4581   9.8777   9.9965
    11.8039  12.4272  13.6403  13.6550  13.7078  13.9510  14.1631  14.1712
    14.2589  14.4113  14.6070  14.6991  15.7097  15.9834  16.4313  16.9714
    17.1629  17.2914  17.4456  17.5900  17.9772

          k = 0.3000 0.3000 0.0000 ( 18515 PWs)   bands (ev):

   -49.0600 -49.0591 -49.0587 -49.0578 -23.3555 -23.3480 -23.3458 -23.3435
   -23.3287 -23.3203 -23.2917 -23.2881 -23.2695 -23.2676 -23.2654 -23.2618
   -21.9387 -21.9257 -21.9247 -21.9167  -6.8998  -6.8031  -6.5824  -6.1120
    -6.0348  -5.9565  -5.8766  -5.8665  -5.7444  -5.6950  -5.6127  -5.5970
    -4.0168  -3.9930  -3.9779  -3.9541  -3.9394  -3.8038  -3.7952  -3.6626
    -3.6414  -3.6304  -3.5885  -3.4714   5.2042   5.2379   5.3210   5.4242
     5.7353   5.8854   6.1283   6.1928   6.3619   6.7327   6.8012   6.9864
     7.2801   7.3072   7.4209   7.5224   7.5237   7.6438   7.6751   8.0646
     8.1003   8.2342   8.3198   8.4114   8.5282   8.6882   8.7751   8.8784
     8.9906   9.2939   9.3063   9.3379   9.4656   9.4786   9.7447   9.9818
    11.7858  12.7760  13.3456  13.3692  13.4248  13.9593  14.1396  14.2582
    14.3098  14.5091  14.5130  14.7267  15.7204  16.1444  16.3822  16.7354
    17.0291  17.1943  17.3947  17.7293  18.1719

          k = 0.2500 0.2500 0.0000 ( 18537 PWs)   bands (ev):

   -49.0602 -49.0589 -49.0589 -49.0576 -23.3544 -23.3497 -23.3458 -23.3427
   -23.3159 -23.3087 -23.3033 -23.2996 -23.2700 -23.2670 -23.2654 -23.2617
   -21.9436 -21.9256 -21.9247 -21.9141  -6.8464  -6.6987  -6.6859  -6.1418
    -5.9411  -5.9260  -5.9060  -5.8979  -5.6808  -5.6619  -5.6371  -5.6154
    -4.0500  -4.0287  -3.9901  -3.9519  -3.9438  -3.8447  -3.7438  -3.7378
    -3.6989  -3.6610  -3.6077  -3.4893   5.2063   5.2356   5.3199   5.4299
     5.8654   6.0897   6.1203   6.5073   6.5839   6.6008   6.6035   6.6826
     6.8101   7.3520   7.4552   7.4862   7.4959   7.6714   7.6717   8.2407
     8.2863   8.2940   8.4208   8.4488   8.6534   8.7001   8.8134   8.8588
     8.8853   9.4834   9.5016   9.5052   9.5173   9.5455   9.5637   9.9635
    11.7668  12.9994  13.0287  13.0848  13.1349  13.9531  14.1319  14.3059
    14.3631  14.5089  14.6377  14.7721  15.7331  16.2685  16.2940  16.4880
    16.7356  16.9310  17.4258  17.6969  17.8756

          k = 0.2000 0.2000 0.0000 ( 18531 PWs)   bands (ev):

   -49.0604 -49.0591 -49.0587 -49.0574 -23.3541 -23.3510 -23.3462 -23.3420
   -23.3145 -23.3106 -23.3034 -23.2976 -23.2706 -23.2665 -23.2650 -23.2613
   -21.9485 -21.9265 -21.9237 -21.9115  -6.7983  -6.7860  -6.5890  -6.1713
    -6.0246  -5.9489  -5.9017  -5.7578  -5.7479  -5.5859  -5.5811  -5.5715
    -4.0861  -4.0845  -4.0023  -3.9481  -3.9474  -3.8791  -3.8162  -3.7640
    -3.7340  -3.6857  -3.5808  -3.5017   5.2083   5.2326   5.3174   5.4287
     5.8586   5.9972   6.1686   6.3462   6.4008   6.4976   6.5207   6.9458
     7.0017   7.3345   7.3851   7.5301   7.5539   7.6914   7.7018   8.1943
     8.4356   8.4918   8.5074   8.6963   8.7117   8.7735   8.7966   8.8516
     8.9701   9.3243   9.5159   9.5345   9.6636   9.6862   9.7506   9.9424
    11.7487  12.6350  12.6655  12.7252  13.4700  13.9275  14.1308  14.2451
    14.4629  14.6245  14.7861  14.8352  15.7461  16.1521  16.2475  16.3498
    16.4305  16.6935  17.1607  17.3579  17.8837

          k = 0.1500 0.1500 0.0000 ( 18527 PWs)   bands (ev):

   -49.0606 -49.0593 -49.0586 -49.0573 -23.3548 -23.3519 -23.3473 -23.3413
   -23.3238 -23.3197 -23.2927 -23.2882 -23.2710 -23.2658 -23.2639 -23.2602
   -21.9530 -21.9274 -21.9228 -21.9091  -6.8743  -6.7644  -6.4825  -6.1987
    -6.0922  -5.9890  -5.8946  -5.8020  -5.6318  -5.5353  -5.5090  -5.5008
    -4.1525  -4.1220  -4.0157  -3.9504  -3.9433  -3.8981  -3.8895  -3.8203
    -3.7990  -3.6468  -3.5540  -3.5036   5.2098   5.2275   5.3145   5.4085
     5.6729   5.8016   5.9755   6.1177   6.4025   6.4275   6.7140   7.2880
     7.2907   7.2924   7.3544   7.5874   7.6171   7.7141   7.7307   8.1063
     8.5657   8.6347   8.6890   8.7022   8.7413   8.8781   8.9496   9.0386
     9.0701   9.1015   9.5517   9.5704   9.7711   9.8350   9.8996   9.9203
    11.7329  12.2844  12.3128  12.3774  13.7478  13.8903  14.1361  14.2032
    14.5368  14.7732  14.9044  14.9403  15.7550  15.9565  16.0272  16.1447
    16.3983  16.5003  16.7025  17.2663  17.6125

          k = 0.1000 0.1000 0.0000 ( 18547 PWs)   bands (ev):

   -49.0608 -49.0595 -49.0584 -49.0571 -23.3559 -23.3532 -23.3492 -23.3409
   -23.3300 -23.3259 -23.2852 -23.2819 -23.2714 -23.2653 -23.2619 -23.2583
   -21.9566 -21.9281 -21.9220 -21.9072  -6.9432  -6.7487  -6.3890  -6.2200
    -6.1325  -6.0212  -5.9160  -5.8257  -5.5373  -5.4923  -5.4442  -5.4298
    -4.2173  -4.1543  -4.0297  -3.9544  -3.9489  -3.9389  -3.9074  -3.8661
    -3.8481  -3.6232  -3.5314  -3.4955   5.2101   5.2155   5.3121   5.3445
     5.5088   5.5485   5.7366   6.2147   6.3350   6.3570   7.0566   7.2496
     7.2613   7.5333   7.5540   7.6395   7.6687   7.7337   7.7546   8.0346
     8.4869   8.6641   8.7200   8.8119   8.8923   8.8974   8.9953   9.1326
     9.2381   9.3354   9.5957   9.6121   9.8272   9.9022   9.9368  10.0002
    11.7182  11.9831  12.0096  12.0770  13.8566  13.9257  14.1608  14.1831
    14.5770  14.9139  14.9393  15.0815  15.7312  15.7433  15.8628  15.9270
    16.3298  16.4109  16.4254  17.1755  17.3988

          k = 0.0500 0.0500 0.0000 ( 18577 PWs)   bands (ev):

   -49.0609 -49.0596 -49.0583 -49.0570 -23.3568 -23.3547 -23.3512 -23.3406
   -23.3331 -23.3291 -23.2814 -23.2786 -23.2716 -23.2649 -23.2597 -23.2563
   -21.9590 -21.9285 -21.9216 -21.9060  -6.9871  -6.7460  -6.3211  -6.2323
    -6.1506  -6.0419  -5.9463  -5.8320  -5.4818  -5.4618  -5.4006  -5.3737
    -4.2640  -4.1781  -4.0410  -3.9876  -3.9601  -3.9357  -3.9115  -3.8940
    -3.8771  -3.6115  -3.5164  -3.4853   5.1852   5.2045   5.2539   5.3105
     5.3564   5.4615   5.6418   6.2776   6.2941   6.3140   7.2204   7.2315
     7.4151   7.6191   7.6833   7.7029   7.7118   7.7467   7.7737   7.9730
     8.2175   8.6496   8.7321   8.8553   8.9310   9.0267   9.0830   9.3038
     9.3532   9.5723   9.6434   9.6615   9.8274   9.8952   9.9879  10.0575
    11.6935  11.7731  11.8122  11.8663  13.8352  13.9861  14.1749  14.2094
    14.5867  14.9119  15.0144  15.1846  15.5801  15.6529  15.7882  15.8430
    16.1664  16.3193  16.4389  17.0955  17.2697

          k = 0.0000 0.0000 0.0000 ( 18577 PWs)   bands (ev):

   -49.0609 -49.0596 -49.0583 -49.0570 -23.3572 -23.3554 -23.3521 -23.3405
   -23.3340 -23.3300 -23.2803 -23.2777 -23.2717 -23.2648 -23.2587 -23.2554
   -21.9598 -21.9286 -21.9214 -21.9056  -7.0021  -6.7466  -6.2952  -6.2360
    -6.1553  -6.0491  -5.9597  -5.8337  -5.4636  -5.4507  -5.3851  -5.3523
    -4.2811  -4.1871  -4.0454  -4.0010  -3.9635  -3.9345  -3.9127  -3.9025
    -3.8865  -3.6080  -3.5111  -3.4809   5.1596   5.1865   5.2273   5.3099
     5.3177   5.4339   5.6210   6.2804   6.2974   6.3014   7.2097   7.2217
     7.6389   7.7021   7.7085   7.7209   7.7512   7.7544   7.7904   7.8300
     8.0580   8.6451   8.7383   8.8509   8.9709   9.0748   9.1188   9.3653
     9.4078   9.6539   9.6676   9.7042   9.8139   9.8895  10.0003  10.0761
    11.6615  11.6967  11.7632  11.7892  13.8281  13.9936  14.1729  14.2327
    14.5834  14.8856  15.0508  15.2231  15.5206  15.6251  15.7494  15.8417
    16.1107  16.2970  16.4429  17.0598  17.2009

          k = 0.0000 0.0000 0.0354 ( 18581 PWs)   bands (ev):

   -49.0609 -49.0596 -49.0583 -49.0570 -23.3570 -23.3552 -23.3521 -23.3400
   -23.3339 -23.3300 -23.2802 -23.2777 -23.2723 -23.2652 -23.2586 -23.2554
   -21.9596 -21.9288 -21.9213 -21.9057  -7.0002  -6.7468  -6.2905  -6.2344
    -6.1549  -6.0504  -5.9591  -5.8307  -5.4663  -5.4564  -5.3898  -5.3562
    -4.2791  -4.1823  -4.0411  -4.0008  -3.9638  -3.9368  -3.9099  -3.9026
    -3.8869  -3.6109  -3.5134  -3.4839   5.1597   5.1863   5.2350   5.3182
     5.3248   5.4390   5.6290   6.2751   6.3009   6.3049   7.1983   7.2113
     7.6308   7.6866   7.7224   7.7377   7.7432   7.7535   7.7892   7.8364
     8.0657   8.6207   8.7507   8.8615   8.9617   9.0668   9.1064   9.3649
     9.4087   9.6383   9.6470   9.6968   9.8167   9.8870  10.0051  10.0763
    11.6821  11.6972  11.7825  11.7886  13.8210  13.9974  14.1591  14.2367
    14.5976  14.8781  15.0518  15.2220  15.5206  15.6216  15.7611  15.8469
    16.1181  16.3052  16.4645  17.0767  17.2048

          k = 0.0000 0.0000 0.0707 ( 18581 PWs)   bands (ev):

   -49.0609 -49.0596 -49.0583 -49.0570 -23.3564 -23.3541 -23.3522 -23.3387
   -23.3339 -23.3301 -23.2802 -23.2779 -23.2739 -23.2666 -23.2586 -23.2555
   -21.9590 -21.9294 -21.9210 -21.9060  -6.9943  -6.7474  -6.2764  -6.2293
    -6.1536  -6.0544  -5.9574  -5.8218  -5.4739  -5.4734  -5.4034  -5.3677
    -4.2731  -4.1683  -4.0284  -4.0001  -3.9644  -3.9436  -3.9027  -3.9017
    -3.8879  -3.6196  -3.5201  -3.4927   5.1602   5.1859   5.2559   5.3198
     5.3691   5.4541   5.6551   6.2594   6.3114   6.3153   7.1657   7.1814
     7.6156   7.6704   7.6974   7.7507   7.7545   7.7796   7.7856   7.8555
     8.0879   8.5489   8.7868   8.8927   8.9342   9.0433   9.0701   9.3644
     9.4115   9.5612   9.6282   9.6777   9.8170   9.8791  10.0172  10.0768
    11.6989  11.7421  11.7866  11.8389  13.7989  14.0090  14.1183  14.2485
    14.6358  14.8559  15.0545  15.2188  15.5208  15.6123  15.7950  15.8640
    16.1432  16.3299  16.5285  17.1262  17.2166

          k = 0.0000 0.0000 0.1061 ( 18573 PWs)   bands (ev):

   -49.0608 -49.0597 -49.0582 -49.0571 -23.3561 -23.3523 -23.3518 -23.3364
   -23.3337 -23.3302 -23.2801 -23.2781 -23.2764 -23.2687 -23.2585 -23.2556
   -21.9580 -21.9303 -21.9206 -21.9064  -6.9848  -6.7492  -6.2531  -6.2200
    -6.1516  -6.0603  -5.9549  -5.8077  -5.5010  -5.4859  -5.4249  -5.3861
    -4.2633  -4.1460  -4.0079  -3.9990  -3.9656  -3.9546  -3.9029  -3.8895
    -3.8884  -3.6341  -3.5312  -3.5073   5.1611   5.1851   5.2837   5.3224
     5.4418   5.4791   5.7046   6.2338   6.3289   6.3326   7.1163   7.1354
     7.6004   7.6306   7.6596   7.7463   7.7797   7.7971   7.8239   7.8871
     8.1220   8.4340   8.8431   8.8892   8.9422   9.0059   9.0121   9.3647
     9.4160   9.4504   9.6014   9.6526   9.8072   9.8648  10.0319  10.0777
    11.7016  11.7835  11.8364  11.9288  13.7596  14.0283  14.0515  14.2682
    14.6858  14.8198  15.0589  15.2136  15.5212  15.5993  15.8472  15.8993
    16.1929  16.3711  16.6317  17.2048  17.2358

          k = 0.0000 0.0000 0.1414 ( 18565 PWs)   bands (ev):

   -49.0608 -49.0597 -49.0582 -49.0571 -23.3558 -23.3525 -23.3485 -23.3336
   -23.3334 -23.3304 -23.2800 -23.2799 -23.2786 -23.2715 -23.2584 -23.2557
   -21.9567 -21.9315 -21.9199 -21.9071  -6.9717  -6.7532  -6.2212  -6.2058
    -6.1488  -6.0676  -5.9526  -5.7890  -5.5384  -5.5015  -5.4528  -5.4103
    -4.2498  -4.1164  -3.9975  -3.9805  -3.9696  -3.9671  -3.9031  -3.8915
    -3.8703  -3.6539  -3.5465  -3.5273   5.1622   5.1840   5.3105   5.3257
     5.5134   5.5411   5.7839   6.1988   6.3532   6.3565   7.0550   7.0776
     7.5382   7.5853   7.6539   7.7403   7.7717   7.8478   7.8759   7.9310
     8.1651   8.2836   8.8282   8.9149   8.9361   8.9566   9.0069   9.3161
     9.3666   9.4224   9.5712   9.6262   9.7858   9.8430  10.0460  10.0788
    11.7052  11.7792  11.9587  12.0470  13.7007  13.9605  14.0552  14.2956
    14.7313  14.7714  15.0647  15.2063  15.5218  15.5852  15.9114  15.9626
    16.2744  16.4285  16.7683  17.2617  17.3081

          k = 0.0000 0.0000 0.1768 ( 18561 PWs)   bands (ev):

   -49.0607 -49.0598 -49.0581 -49.0572 -23.3556 -23.3527 -23.3443 -23.3334
   -23.3306 -23.3296 -23.2844 -23.2798 -23.2796 -23.2744 -23.2582 -23.2559
   -21.9551 -21.9331 -21.9191 -21.9079  -6.9555  -6.7601  -6.1860  -6.1812
    -6.1452  -6.0758  -5.9514  -5.7664  -5.5846  -5.5193  -5.4845  -5.4391
    -4.2329  -4.0810  -3.9956  -3.9881  -3.9691  -3.9474  -3.9033  -3.8937
    -3.8482  -3.6789  -3.5657  -3.5524   5.1636   5.1826   5.3297   5.3311
     5.5561   5.6647   5.8962   6.1554   6.3843   6.3868   6.9864   7.0121
     7.4214   7.5663   7.6529   7.7330   7.7617   7.9057   7.9356   7.9871
     8.1097   8.2153   8.7539   8.8469   8.8978   8.9975   9.0833   9.1678
     9.3708   9.4305   9.5408   9.6008   9.7533   9.8125  10.0579  10.0801
    11.7096  11.7740  12.1021  12.1876  13.6209  13.8476  14.0896  14.3302
    14.7128  14.7580  15.0721  15.1972  15.5226  15.5719  15.9904  16.0537
    16.3928  16.5017  16.9281  17.2931  17.2934

          k = 0.0000 0.0000 0.2121 ( 18541 PWs)   bands (ev):

   -49.0606 -49.0599 -49.0580 -49.0573 -23.3553 -23.3529 -23.3393 -23.3331
   -23.3308 -23.3252 -23.2895 -23.2824 -23.2796 -23.2764 -23.2580 -23.2561
   -21.9532 -21.9349 -21.9182 -21.9089  -6.9366  -6.7707  -6.1604  -6.1408
    -6.1338  -6.0842  -5.9532  -5.7405  -5.6381  -5.5381  -5.5171  -5.4712
    -4.2130  -4.0412  -4.0095  -3.9933  -3.9713  -3.9097  -3.9034  -3.8958
    -3.8226  -3.7087  -3.5891  -3.5815   5.1652   5.1810   5.3341   5.3443
     5.6062   5.8096   6.0386   6.1065   6.4219   6.4228   6.9141   6.9428
     7.2828   7.5303   7.6560   7.7248   7.7502   7.9275   7.9759   8.0029
     8.0553   8.2714   8.6695   8.7491   8.8319   9.0136   9.0867   9.1675
     9.3773   9.4404   9.5124   9.5769   9.7104   9.7724  10.0672  10.0814
    11.7146  11.7680  12.2607  12.3454  13.5200  13.7155  14.1313  14.3719
    14.6468  14.7592  15.0812  15.1863  15.5237  15.5605  16.0891  16.1658
    16.5491  16.5893  17.0955  17.1612  17.3293

          k = 0.0000 0.0000 0.2475 ( 18554 PWs)   bands (ev):

   -49.0605 -49.0599 -49.0579 -49.0573 -23.3550 -23.3532 -23.3337 -23.3329
   -23.3311 -23.3202 -23.2952 -23.2867 -23.2793 -23.2773 -23.2578 -23.2563
   -21.9511 -21.9370 -21.9171 -21.9099  -6.9154  -6.7850  -6.1357  -6.1297
    -6.0927  -6.0801  -5.9600  -5.7117  -5.6974  -5.5562  -5.5467  -5.5056
    -4.1905  -4.0334  -3.9984  -3.9908  -3.9738  -3.9035  -3.8979  -3.8688
    -3.7943  -3.7427  -3.6190  -3.6112   5.1670   5.1792   5.3387   5.3514
     5.6625   5.9718   6.0459   6.2143   6.4634   6.4660   6.8408   6.8729
     7.1261   7.4433   7.6626   7.7163   7.7374   7.7911   8.0452   8.0777
     8.1355   8.3325   8.5787   8.6467   8.7611   8.8604   9.1790   9.2560
     9.3860   9.4520   9.4867   9.5546   9.6574   9.7224  10.0740  10.0825
    11.7203  11.7614  12.4289  12.5154  13.3994  13.5671  14.1799  14.4197
    14.5763  14.7367  15.0920  15.1740  15.5252  15.5511  16.2037  16.2967
    16.6900  16.7397  17.0225  17.2488  17.2879

          k = 0.0000 0.0000 0.2828 ( 18514 PWs)   bands (ev):

   -49.0605 -49.0600 -49.0579 -49.0574 -23.3547 -23.3535 -23.3326 -23.3314
   -23.3276 -23.3148 -23.3014 -23.2919 -23.2791 -23.2778 -23.2575 -23.2565
   -21.9488 -21.9392 -21.9160 -21.9111  -6.8927  -6.8028  -6.1300  -6.1011
    -6.0952  -6.0212  -5.9739  -5.7607  -5.6805  -5.5720  -5.5699  -5.5412
    -4.1660  -4.0591  -3.9881  -3.9765  -3.9538  -3.9033  -3.8996  -3.8258
    -3.7805  -3.7641  -3.6557  -3.6401   5.1690   5.1773   5.3434   5.3540
     5.7236   5.9848   6.1461   6.4083   6.5050   6.5162   6.7686   6.8060
     6.9584   7.2777   7.6719   7.7081   7.7238   7.7240   8.1238   8.1595
     8.2277   8.3981   8.4846   8.5431   8.6877   8.7132   9.2711   9.3455
     9.3970   9.4637   9.4653   9.5338   9.5951   9.6625  10.0787  10.0834
    11.7265  11.7544  12.6020  12.6931  13.2614  13.4056  14.2350  14.4728
    14.5038  14.6963  15.1043  15.1606  15.5272  15.5436  16.3283  16.4453
    16.8015  16.8803  16.9571  17.1262  17.3036

          k = 0.0000 0.0000 0.3182 ( 18522 PWs)   bands (ev):

   -49.0604 -49.0601 -49.0578 -49.0575 -23.3544 -23.3538 -23.3323 -23.3317
   -23.3212 -23.3091 -23.3079 -23.2975 -23.2788 -23.2782 -23.2573 -23.2568
   -21.9464 -21.9415 -21.9148 -21.9123  -6.8693  -6.8234  -6.1236  -6.1090
    -6.0594  -5.9959  -5.9583  -5.8265  -5.6474  -5.5839  -5.5833  -5.5772
    -4.1400  -4.0858  -3.9853  -3.9794  -3.9088  -3.9029  -3.9011  -3.8212
    -3.7820  -3.7329  -3.6959  -3.6702   5.1710   5.1752   5.3477   5.3537
     5.7879   5.9202   6.3239   6.5331   6.5721   6.6197   6.6991   6.7477
     6.7988   7.0663   7.6833   7.7013   7.7021   7.7098   8.2082   8.2479
     8.3317   8.3902   8.4409   8.4673   8.5750   8.6133   9.3607   9.4102
     9.4332   9.4434   9.4802   9.5145   9.5242   9.5935  10.0816  10.0837
    11.7331  11.7472  12.7757  12.8745  13.1091  13.2342  14.2960  14.4317
    14.5296  14.6449  15.1177  15.1464  15.5298  15.5378  16.4599  16.6081
    16.7376  16.9216  16.9546  17.1757  17.1932

          k = 0.0000 0.0000 0.3536 ( 18458 PWs)   bands (ev):

   -49.0603 -49.0602 -49.0577 -49.0576 -23.3542 -23.3541 -23.3320 -23.3319
   -23.3146 -23.3145 -23.3034 -23.3033 -23.2786 -23.2784 -23.2571 -23.2570
   -21.9440 -21.9440 -21.9135 -21.9135  -6.8459  -6.8458  -6.1166  -6.1165
    -6.0252  -6.0252  -5.8929  -5.8929  -5.6128  -5.6127  -5.5880  -5.5879
    -4.1130  -4.1130  -3.9823  -3.9823  -3.9022  -3.9022  -3.8643  -3.8643
    -3.7384  -3.7384  -3.7013  -3.7013   5.1731   5.1732   5.3513   5.3514
     5.8540   5.8541   6.4796   6.4796   6.6333   6.6333   6.7200   6.7201
     6.8419   6.8419   7.6961   7.6962   7.6980   7.6980   8.2974   8.2975
     8.3420   8.3421   8.4476   8.4477   8.5393   8.5394   9.4256   9.4257
     9.4456   9.4456   9.4966   9.4967   9.5165   9.5165  10.0832  10.0833
    11.7401  11.7402  12.9460  12.9460  13.0560  13.0561  14.3619  14.3620
    14.5879  14.5880  15.1319  15.1320  15.5332  15.5333  16.5968  16.5968
    16.7798  16.7798  17.0473  17.0473  17.4401

          k = 0.0000 0.0500 0.3536 ( 18504 PWs)   bands (ev):

   -49.0603 -49.0602 -49.0577 -49.0576 -23.3538 -23.3537 -23.3316 -23.3315
   -23.3145 -23.3144 -23.3034 -23.3033 -23.2791 -23.2790 -23.2576 -23.2575
   -21.9437 -21.9437 -21.9137 -21.9137  -6.8408  -6.8407  -6.1138  -6.1138
    -6.0346  -6.0346  -5.8951  -5.8951  -5.6153  -5.6152  -5.5884  -5.5883
    -4.1136  -4.1136  -3.9848  -3.9848  -3.8975  -3.8975  -3.8633  -3.8632
    -3.7333  -3.7332  -3.7005  -3.7005   5.1892   5.1893   5.3669   5.3670
     5.8619   5.8620   6.4788   6.4788   6.6373   6.6374   6.7115   6.7115
     6.8504   6.8505   7.6666   7.6667   7.6865   7.6866   8.2220   8.2220
     8.2652   8.2652   8.5182   8.5183   8.6191   8.6192   9.3628   9.3629
     9.4533   9.4534   9.4742   9.4742   9.5395   9.5395  10.0728  10.0729
    11.7768  11.7769  12.9517  12.9518  13.0600  13.0600  14.3625  14.3626
    14.5764  14.5765  15.1119  15.1120  15.5632  15.5633  16.6187  16.6187
    16.7924  16.7925  17.0614  17.0614  17.4090

          k = 0.0000 0.1000 0.3536 ( 18522 PWs)   bands (ev):

   -49.0602 -49.0601 -49.0578 -49.0577 -23.3526 -23.3525 -23.3302 -23.3301
   -23.3143 -23.3142 -23.3036 -23.3035 -23.2806 -23.2805 -23.2589 -23.2588
   -21.9430 -21.9430 -21.9141 -21.9141  -6.8256  -6.8255  -6.1056  -6.1055
    -6.0608  -6.0608  -5.9016  -5.9016  -5.6226  -5.6226  -5.5908  -5.5907
    -4.1147  -4.1147  -3.9916  -3.9916  -3.8847  -3.8847  -3.8605  -3.8605
    -3.7189  -3.7189  -3.6977  -3.6977   5.2373   5.2374   5.4131   5.4132
     5.8859   5.8860   6.4766   6.4766   6.6494   6.6495   6.6915   6.6915
     6.8703   6.8703   7.5793   7.5794   7.6562   7.6562   8.1032   8.1032
     8.1397   8.1397   8.6119   8.6119   8.7524   8.7525   9.2624   9.2625
     9.3805   9.3806   9.4852   9.4852   9.5564   9.5564  10.0425  10.0426
    11.8809  11.8810  12.9695  12.9695  13.0725  13.0726  14.3591  14.3592
    14.5419  14.5420  15.0532  15.0533  15.6552  15.6553  16.6824  16.6824
    16.8297  16.8297  17.1034  17.1034  17.3961

          k = 0.0000 0.1500 0.3536 ( 18518 PWs)   bands (ev):

   -49.0602 -49.0600 -49.0578 -49.0577 -23.3506 -23.3505 -23.3280 -23.3279
   -23.3138 -23.3137 -23.3038 -23.3037 -23.2831 -23.2830 -23.2612 -23.2611
   -21.9419 -21.9419 -21.9148 -21.9148  -6.8009  -6.8008  -6.0993  -6.0992
    -6.0922  -6.0921  -5.9122  -5.9122  -5.6347  -5.6346  -5.5980  -5.5979
    -4.1146  -4.1146  -4.0016  -4.0016  -3.8667  -3.8667  -3.8567  -3.8567
    -3.6989  -3.6989  -3.6904  -3.6904   5.3166   5.3167   5.4869   5.4870
     5.9267   5.9268   6.4735   6.4735   6.6681   6.6682   6.6697   6.6698
     6.8931   6.8931   7.4535   7.4536   7.6015   7.6016   7.9793   7.9793
     8.0126   8.0126   8.6539   8.6539   8.8881   8.8882   9.1637   9.1637
     9.2945   9.2946   9.4815   9.4815   9.5652   9.5652   9.9941   9.9942
    12.0382  12.0383  13.0007  13.0008  13.0955  13.0955  14.3406  14.3407
    14.4848  14.4849  14.9589  14.9590  15.8119  15.8120  16.7823  16.7823
    16.8895  16.8895  17.1717  17.1718  17.3969

          k = 0.0000 0.2000 0.3536 ( 18550 PWs)   bands (ev):

   -49.0600 -49.0599 -49.0579 -49.0578 -23.3479 -23.3478 -23.3249 -23.3248
   -23.3133 -23.3132 -23.3042 -23.3041 -23.2865 -23.2864 -23.2643 -23.2642
   -21.9404 -21.9404 -21.9158 -21.9158  -6.7674  -6.7673  -6.1454  -6.1453
    -6.0740  -6.0740  -5.9252  -5.9252  -5.6511  -5.6510  -5.6125  -5.6125
    -4.1118  -4.1118  -4.0134  -4.0134  -3.8528  -3.8528  -3.8480  -3.8480
    -3.6836  -3.6836  -3.6693  -3.6693   5.4254   5.4255   5.5833   5.5833
     5.9858   5.9858   6.4702   6.4702   6.6464   6.6464   6.6983   6.6983
     6.9132   6.9132   7.3102   7.3102   7.5210   7.5210   7.8515   7.8515
     7.8853   7.8853   8.5896   8.5896   9.0117   9.0117   9.1192   9.1192
     9.2146   9.2147   9.4731   9.4731   9.5691   9.5691   9.9307   9.9308
    12.2331  12.2332  13.0470  13.0471  13.1310  13.1310  14.2987  14.2988
    14.4063  14.4063  14.8337  14.8338  16.0308  16.0309  16.9075  16.9075
    16.9706  16.9706  17.2641  17.2641  17.4053

          k = 0.0000 0.2500 0.3536 ( 18528 PWs)   bands (ev):

   -49.0599 -49.0598 -49.0581 -49.0580 -23.3446 -23.3445 -23.3211 -23.3210
   -23.3126 -23.3125 -23.3047 -23.3046 -23.2906 -23.2905 -23.2682 -23.2680
   -21.9386 -21.9386 -21.9171 -21.9171  -6.7263  -6.7262  -6.1957  -6.1956
    -6.0520  -6.0519  -5.9383  -5.9382  -5.6713  -5.6712  -5.6352  -5.6352
    -4.1057  -4.1057  -4.0257  -4.0257  -3.8491  -3.8491  -3.8331  -3.8331
    -3.6666  -3.6665  -3.6423  -3.6423   5.5619   5.5620   5.6945   5.6946
     6.0649   6.0650   6.4658   6.4658   6.6311   6.6311   6.7352   6.7353
     6.9231   6.9231   7.1713   7.1714   7.4170   7.4170   7.7212   7.7212
     7.7505   7.7505   8.4235   8.4235   9.0827   9.0827   9.1281   9.1281
     9.1924   9.1925   9.4682   9.4682   9.5696   9.5696   9.8566   9.8566
    12.4526  12.4527  13.1098  13.1098  13.1810  13.1811  14.2313  14.2313
    14.3084  14.3085  14.6821  14.6822  16.3032  16.3033  17.0271  17.0272
    17.0878  17.0878  17.3773  17.3774  17.4171

          k = 0.0000 0.3000 0.3536 ( 18494 PWs)   bands (ev):

   -49.0598 -49.0597 -49.0582 -49.0581 -23.3405 -23.3404 -23.3167 -23.3166
   -23.3118 -23.3117 -23.3054 -23.3053 -23.2952 -23.2951 -23.2727 -23.2725
   -21.9365 -21.9365 -21.9187 -21.9187  -6.6791  -6.6790  -6.2479  -6.2478
    -6.0271  -6.0270  -5.9492  -5.9492  -5.6944  -5.6943  -5.6647  -5.6646
    -4.0969  -4.0969  -4.0374  -4.0374  -3.8460  -3.8460  -3.8242  -3.8242
    -3.6447  -3.6447  -3.6160  -3.6160   5.7234   5.7235   5.8109   5.8110
     6.1641   6.1641   6.4556   6.4556   6.6319   6.6319   6.7804   6.7804
     6.8980   6.8981   7.0739   7.0739   7.2925   7.2926   7.5927   7.5927
     7.6040   7.6040   8.2054   8.2054   9.0697   9.0697   9.1479   9.1479
     9.2664   9.2664   9.4718   9.4718   9.5669   9.5669   9.7775   9.7776
    12.6868  12.6869  13.1893  13.1894  13.2470  13.2471  14.1412  14.1413
    14.1946  14.1947  14.5086  14.5087  16.6166  16.6167  17.1202  17.1203
    17.2420  17.2421  17.4321  17.4321  17.5071

          k = 0.0000 0.3500 0.3536 ( 18514 PWs)   bands (ev):

   -49.0596 -49.0595 -49.0584 -49.0583 -23.3360 -23.3358 -23.3117 -23.3116
   -23.3112 -23.3111 -23.3063 -23.3062 -23.2999 -23.2998 -23.2777 -23.2776
   -21.9342 -21.9342 -21.9204 -21.9204  -6.6275  -6.6274  -6.3007  -6.3007
    -6.0010  -6.0009  -5.9563  -5.9562  -5.7189  -5.7189  -5.6976  -5.6975
    -4.0868  -4.0868  -4.0475  -4.0475  -3.8435  -3.8435  -3.8207  -3.8207
    -3.6216  -3.6216  -3.5929  -3.5929   5.9066   5.9067   5.9241   5.9242
     6.2752   6.2752   6.4300   6.4300   6.6644   6.6644   6.8177   6.8178
     6.8328   6.8329   7.0505   7.0505   7.1468   7.1468   7.4531   7.4531
     7.4727   7.4727   7.9664   7.9665   9.0631   9.0632   9.1599   9.1599
     9.3429   9.3430   9.4827   9.4827   9.5605   9.5605   9.7017   9.7018
    12.9286  12.9287  13.2847  13.2848  13.3293  13.3293  14.0336  14.0337
    14.0689  14.0690  14.3170  14.3171  16.9583  16.9584  17.1984  17.1984
    17.3765  17.3765  17.4771  17.4771  17.6480

          k = 0.0000 0.4000 0.3536 ( 18520 PWs)   bands (ev):

   -49.0594 -49.0593 -49.0586 -49.0585 -23.3309 -23.3308 -23.3114 -23.3114
   -23.3075 -23.3075 -23.3063 -23.3062 -23.3038 -23.3037 -23.2831 -23.2830
   -21.9318 -21.9318 -21.9224 -21.9224  -6.5732  -6.5731  -6.3539  -6.3538
    -5.9763  -5.9762  -5.9590  -5.9590  -5.7424  -5.7423  -5.7287  -5.7287
    -4.0776  -4.0776  -4.0552  -4.0552  -3.8418  -3.8418  -3.8203  -3.8203
    -3.6015  -3.6015  -3.5749  -3.5749   6.0305   6.0306   6.1072   6.1073
     6.3678   6.3678   6.3933   6.3933   6.6927   6.6928   6.7802   6.7802
     6.8788   6.8789   6.9887   6.9887   7.0625   7.0625   7.3135   7.3136
     7.3705   7.3705   7.7251   7.7252   9.0760   9.0761   9.1639   9.1639
     9.3948   9.3948   9.4959   9.4959   9.5521   9.5522   9.6405   9.6405
    13.1723  13.1724  13.3938  13.3939  13.4266  13.4267  13.9145  13.9146
    13.9362  13.9363  14.1106  14.1107  17.2582  17.2582  17.3147  17.3148
    17.4145  17.4145  17.6161  17.6161  17.7925

          k = 0.0000 0.4500 0.3536 ( 18544 PWs)   bands (ev):

   -49.0592 -49.0591 -49.0588 -49.0587 -23.3255 -23.3254 -23.3149 -23.3148
   -23.3078 -23.3077 -23.3058 -23.3057 -23.3006 -23.3005 -23.2889 -23.2888
   -21.9293 -21.9293 -21.9246 -21.9246  -6.5181  -6.5181  -6.4073  -6.4072
    -5.9588  -5.9588  -5.9572  -5.9572  -5.7606  -5.7606  -5.7517  -5.7517
    -4.0710  -4.0710  -4.0601  -4.0601  -3.8408  -3.8408  -3.8210  -3.8210
    -3.5879  -3.5879  -3.5634  -3.5634   6.1305   6.1305   6.3090   6.3090
     6.3197   6.3198   6.4666   6.4666   6.6217   6.6218   6.7527   6.7528
     6.8965   6.8965   6.9846   6.9847   7.0793   7.0793   7.1972   7.1973
     7.3053   7.3053   7.5019   7.5019   9.0968   9.0968   9.1641   9.1642
     9.4117   9.4117   9.5059   9.5059   9.5537   9.5537   9.6003   9.6003
    13.4128  13.4128  13.5111  13.5112  13.5359  13.5360  13.7907  13.7908
    13.8027  13.8028  13.8945  13.8946  17.2951  17.2951  17.4225  17.4225
    17.6664  17.6665  17.7701  17.7702  17.9248

          k = 0.0000 0.5000 0.3536 ( 18528 PWs)   bands (ev):

   -49.0590 -49.0590 -49.0589 -49.0589 -23.3203 -23.3203 -23.3197 -23.3197
   -23.3072 -23.3072 -23.3067 -23.3067 -23.2948 -23.2947 -23.2946 -23.2946
   -21.9270 -21.9270 -21.9269 -21.9269  -6.4703  -6.4703  -6.4542  -6.4542
    -5.9582  -5.9582  -5.9498  -5.9498  -5.7678  -5.7678  -5.7603  -5.7603
    -4.0687  -4.0687  -4.0617  -4.0617  -3.8404  -3.8404  -3.8214  -3.8214
    -3.5832  -3.5832  -3.5595  -3.5595   6.2218   6.2218   6.2269   6.2269
     6.5142   6.5142   6.5212   6.5212   6.5652   6.5652   6.5670   6.5670
     6.9830   6.9830   7.0312   7.0312   7.0756   7.0756   7.1319   7.1319
     7.3215   7.3215   7.3558   7.3558   9.1072   9.1072   9.1639   9.1639
     9.4102   9.4102   9.5096   9.5096   9.5668   9.5668   9.5783   9.5783
    13.5912  13.5912  13.6178  13.6178  13.6292  13.6292  13.6787  13.6787
    13.6924  13.6924  13.7362  13.7362  17.3074  17.3074  17.4244  17.4244
    17.8610  17.8610  17.9245  17.9246  17.9609

          k = 0.0500 0.5000 0.3536 ( 18544 PWs)   bands (ev):

   -49.0590 -49.0590 -49.0589 -49.0589 -23.3218 -23.3218 -23.3214 -23.3214
   -23.3072 -23.3072 -23.3069 -23.3069 -23.2930 -23.2930 -23.2929 -23.2929
   -21.9269 -21.9269 -21.9269 -21.9269  -6.4775  -6.4775  -6.4649  -6.4649
    -5.9607  -5.9607  -5.9357  -5.9357  -5.7758  -5.7758  -5.7497  -5.7497
    -4.0777  -4.0777  -4.0444  -4.0444  -3.8684  -3.8684  -3.7910  -3.7910
    -3.5836  -3.5836  -3.5591  -3.5591   6.1876   6.1876   6.1886   6.1886
     6.4054   6.4054   6.4431   6.4431   6.6332   6.6332   6.7054   6.7054
     6.9266   6.9266   7.0606   7.0606   7.0761   7.0761   7.0969   7.0969
     7.3970   7.3970   7.4247   7.4247   9.0778   9.0778   9.1746   9.1746
     9.3889   9.3889   9.4794   9.4794   9.5603   9.5603   9.5947   9.5947
    13.5075  13.5075  13.5627  13.5627  13.6875  13.6875  13.7086  13.7086
    13.7247  13.7247  13.7912  13.7912  17.3019  17.3019  17.4329  17.4329
    17.7567  17.7567  17.8040  17.8040  17.9536

          k = 0.1000 0.5000 0.3536 ( 18516 PWs)   bands (ev):

   -49.0590 -49.0590 -49.0589 -49.0589 -23.3256 -23.3256 -23.3255 -23.3255
   -23.3073 -23.3072 -23.3071 -23.3071 -23.2890 -23.2890 -23.2889 -23.2889
   -21.9268 -21.9268 -21.9268 -21.9268  -6.4978  -6.4978  -6.4934  -6.4934
    -5.9617  -5.9617  -5.9032  -5.9032  -5.7872  -5.7872  -5.7318  -5.7318
    -4.0805  -4.0805  -4.0175  -4.0175  -3.8993  -3.8993  -3.7537  -3.7537
    -3.5839  -3.5839  -3.5575  -3.5575   6.0700   6.0700   6.0786   6.0786
     6.3334   6.3334   6.3812   6.3812   6.7146   6.7146   6.8030   6.8030
     6.8677   6.8677   7.0188   7.0188   7.1019   7.1019   7.1341   7.1341
     7.5632   7.5632   7.5662   7.5662   9.0208   9.0208   9.1744   9.1744
     9.3264   9.3264   9.4188   9.4188   9.5455   9.5455   9.6157   9.6157
    13.4162  13.4162  13.4790  13.4790  13.7254  13.7254  13.7437  13.7437
    13.8368  13.8368  13.8859  13.8859  17.2632  17.2632  17.4034  17.4034
    17.6245  17.6245  17.6716  17.6716  17.9780

          k = 0.1500 0.5000 0.3536 ( 18532 PWs)   bands (ev):

   -49.0590 -49.0590 -49.0589 -49.0589 -23.3306 -23.3306 -23.3304 -23.3304
   -23.3073 -23.3073 -23.3071 -23.3071 -23.2842 -23.2841 -23.2840 -23.2840
   -21.9266 -21.9266 -21.9266 -21.9266  -6.5323  -6.5323  -6.5277  -6.5277
    -5.9615  -5.9615  -5.8596  -5.8596  -5.8010  -5.8010  -5.7097  -5.7097
    -4.0742  -4.0742  -3.9863  -3.9863  -3.9245  -3.9245  -3.7218  -3.7218
    -3.5816  -3.5816  -3.5544  -3.5544   5.9124   5.9124   5.9269   5.9269
     6.2872   6.2872   6.3549   6.3549   6.7168   6.7168   6.8064   6.8064
     6.8883   6.8883   7.0195   7.0195   7.1561   7.1561   7.2067   7.2067
     7.7259   7.7259   7.7715   7.7715   8.9545   8.9545   9.1451   9.1451
     9.2275   9.2275   9.3451   9.3451   9.5322   9.5322   9.6283   9.6283
    13.3345  13.3345  13.3967  13.3967  13.7801  13.7801  13.7949  13.7949
    13.9519  13.9519  13.9868  13.9868  17.1427  17.1427  17.2351  17.2351
    17.5753  17.5753  17.7042  17.7042  18.0112

          k = 0.2000 0.5000 0.3536 ( 18496 PWs)   bands (ev):

   -49.0590 -49.0590 -49.0589 -49.0589 -23.3356 -23.3356 -23.3354 -23.3354
   -23.3073 -23.3073 -23.3070 -23.3070 -23.2793 -23.2792 -23.2791 -23.2791
   -21.9264 -21.9264 -21.9263 -21.9263  -6.5747  -6.5747  -6.5632  -6.5632
    -5.9604  -5.9604  -5.8172  -5.8172  -5.8116  -5.8116  -5.6860  -5.6860
    -4.0598  -4.0598  -3.9539  -3.9539  -3.9428  -3.9428  -3.7022  -3.7022
    -3.5722  -3.5722  -3.5493  -3.5493   5.7531   5.7531   5.7692   5.7692
     6.2443   6.2443   6.3323   6.3323   6.6839   6.6839   6.7562   6.7562
     6.9549   6.9549   7.0650   7.0650   7.2205   7.2205   7.2924   7.2924
     7.8961   7.8961   7.9883   7.9883   8.8846   8.8846   9.0899   9.0899
     9.1003   9.1003   9.2633   9.2633   9.5266   9.5266   9.6323   9.6323
    13.2634  13.2634  13.3203  13.3203  13.8451  13.8451  13.8561  13.8561
    14.0639  14.0639  14.0871  14.0871  16.9629  16.9629  17.0188  17.0188
    17.6029  17.6029  17.8087  17.8087  18.0566

          k = 0.2500 0.5000 0.3536 ( 18516 PWs)   bands (ev):

   -49.0590 -49.0590 -49.0589 -49.0589 -23.3404 -23.3404 -23.3402 -23.3402
   -23.3072 -23.3072 -23.3068 -23.3068 -23.2747 -23.2747 -23.2746 -23.2746
   -21.9261 -21.9261 -21.9261 -21.9261  -6.6156  -6.6156  -6.6003  -6.6003
    -5.9582  -5.9582  -5.8352  -5.8352  -5.7643  -5.7643  -5.6631  -5.6631
    -4.0388  -4.0388  -3.9540  -3.9540  -3.9231  -3.9231  -3.6988  -3.6988
    -3.5540  -3.5540  -3.5416  -3.5416   5.6069   5.6069   5.6221   5.6221
     6.2013   6.2013   6.3018   6.3018   6.6576   6.6576   6.7075   6.7075
     7.0291   7.0291   7.1226   7.1226   7.2884   7.2884   7.3717   7.3717
     8.0575   8.0575   8.2018   8.2018   8.8142   8.8142   8.9547   8.9547
     9.0256   9.0256   9.1773   9.1773   9.5276   9.5276   9.6290   9.6290
    13.2031  13.2031  13.2518  13.2518  13.9120  13.9120  13.9197  13.9197
    14.1678  14.1678  14.1820  14.1820  16.7729  16.7729  16.8067  16.8067
    17.6665  17.6665  17.9208  17.9208  18.1100

          k = 0.3000 0.5000 0.3536 ( 18500 PWs)   bands (ev):

   -49.0590 -49.0590 -49.0589 -49.0589 -23.3446 -23.3446 -23.3444 -23.3444
   -23.3070 -23.3070 -23.3067 -23.3067 -23.2708 -23.2708 -23.2707 -23.2707
   -21.9258 -21.9258 -21.9258 -21.9258  -6.6517  -6.6517  -6.6356  -6.6356
    -5.9547  -5.9547  -5.8541  -5.8541  -5.7212  -5.7212  -5.6433  -5.6433
    -4.0138  -4.0138  -3.9586  -3.9586  -3.8960  -3.8960  -3.7085  -3.7085
    -3.5318  -3.5318  -3.5311  -3.5311   5.4808   5.4808   5.4938   5.4938
     6.1619   6.1619   6.2619   6.2619   6.6410   6.6410   6.6730   6.6730
     7.1063   7.1063   7.1871   7.1871   7.3543   7.3543   7.4361   7.4361
     8.1911   8.1911   8.4009   8.4009   8.7488   8.7488   8.8006   8.8006
     8.9728   8.9728   9.0908   9.0908   9.5322   9.5322   9.6201   9.6201
    13.1538  13.1538  13.1928  13.1928  13.9738  13.9738  13.9789  13.9789
    14.2589  14.2589  14.2671  14.2671  16.5970  16.5970  16.6160  16.6160
    17.7477  17.7477  18.0036  18.0036  18.1652

          k = 0.3500 0.5000 0.3536 ( 18524 PWs)   bands (ev):

   -49.0590 -49.0590 -49.0589 -49.0589 -23.3480 -23.3480 -23.3478 -23.3478
   -23.3069 -23.3069 -23.3067 -23.3066 -23.2676 -23.2676 -23.2675 -23.2675
   -21.9256 -21.9256 -21.9256 -21.9256  -6.6808  -6.6808  -6.6665  -6.6665
    -5.9495  -5.9495  -5.8729  -5.8729  -5.6844  -5.6844  -5.6282  -5.6282
    -3.9884  -3.9884  -3.9580  -3.9580  -3.8728  -3.8728  -3.7267  -3.7267
    -3.5186  -3.5186  -3.5114  -3.5114   5.3792   5.3792   5.3893   5.3893
     6.1306   6.1306   6.2169   6.2169   6.6317   6.6317   6.6514   6.6514
     7.1839   7.1839   7.2534   7.2534   7.4143   7.4143   7.4831   7.4831
     8.2753   8.2753   8.5754   8.5754   8.6487   8.6487   8.7055   8.7055
     8.9430   8.9430   9.0073   9.0073   9.5382   9.5382   9.6074   9.6074
    13.1159  13.1159  13.1446  13.1446  14.0250  14.0250  14.0283  14.0283
    14.3335  14.3335  14.3381  14.3381  16.4485  16.4485  16.4576  16.4576
    17.8364  17.8364  18.0468  18.0468  18.2136

          k = 0.4000 0.5000 0.3536 ( 18540 PWs)   bands (ev):

   -49.0590 -49.0590 -49.0589 -49.0589 -23.3505 -23.3505 -23.3503 -23.3503
   -23.3068 -23.3068 -23.3066 -23.3066 -23.2652 -23.2652 -23.2651 -23.2651
   -21.9254 -21.9254 -21.9254 -21.9254  -6.7015  -6.7015  -6.6909  -6.6909
    -5.9423  -5.9423  -5.8907  -5.8907  -5.6553  -5.6553  -5.6190  -5.6190
    -3.9668  -3.9668  -3.9541  -3.9541  -3.8516  -3.8516  -3.7501  -3.7501
    -3.5057  -3.5057  -3.4966  -3.4966   5.3051   5.3051   5.3120   5.3120
     6.1111   6.1111   6.1738   6.1738   6.6272   6.6272   6.6388   6.6388
     7.2562   7.2562   7.3114   7.3114   7.4658   7.4658   7.5136   7.5136
     8.3017   8.3017   8.5095   8.5095   8.7046   8.7046   8.7180   8.7180
     8.9295   8.9295   8.9314   8.9314   9.5450   9.5450   9.5926   9.5926
    13.0897  13.0897  13.1084  13.1084  14.0624  14.0624  14.0644  14.0644
    14.3887  14.3887  14.3913  14.3913  16.3363  16.3363  16.3395  16.3395
    17.9234  17.9234  18.0667  18.0667  18.2504

          k = 0.4500 0.5000 0.3536 ( 18540 PWs)   bands (ev):

   -49.0590 -49.0590 -49.0589 -49.0589 -23.3520 -23.3520 -23.3519 -23.3519
   -23.3067 -23.3067 -23.3066 -23.3066 -23.2638 -23.2638 -23.2637 -23.2637
   -21.9253 -21.9253 -21.9253 -21.9253  -6.7129  -6.7129  -6.7073  -6.7073
    -5.9329  -5.9329  -5.9069  -5.9069  -5.6343  -5.6343  -5.6166  -5.6166
    -3.9530  -3.9530  -3.9497  -3.9497  -3.8290  -3.8290  -3.7764  -3.7764
    -3.4950  -3.4950  -3.4890  -3.4890   5.2606   5.2606   5.2641   5.2641
     6.1056   6.1056   6.1385   6.1385   6.6260   6.6260   6.6314   6.6314
     7.3141   7.3141   7.3463   7.3463   7.5053   7.5053   7.5291   7.5291
     8.3036   8.3036   8.3983   8.3983   8.7391   8.7391   8.8162   8.8162
     8.8644   8.8644   8.9210   8.9210   9.5534   9.5534   9.5776   9.5776
    13.0755  13.0755  13.0847  13.0847  14.0849  14.0849  14.0859  14.0860
    14.4227  14.4227  14.4239  14.4239  16.2665  16.2665  16.2671  16.2671
    17.9975  17.9975  18.0687  18.0687  18.2765

          k = 0.5000 0.5000 0.3536 ( 18616 PWs)   bands (ev):

   -49.0590 -49.0590 -49.0589 -49.0589 -23.3526 -23.3526 -23.3524 -23.3524
   -23.3067 -23.3066 -23.3066 -23.3065 -23.2633 -23.2633 -23.2632 -23.2632
   -21.9252 -21.9252 -21.9252 -21.9252  -6.7149  -6.7149  -6.7148  -6.7148
    -5.9211  -5.9211  -5.9211  -5.9211  -5.6215  -5.6215  -5.6215  -5.6215
    -3.9481  -3.9481  -3.9481  -3.9481  -3.8035  -3.8035  -3.8035  -3.8035
    -3.4887  -3.4887  -3.4887  -3.4887   5.2467   5.2467   5.2468   5.2468
     6.1149   6.1149   6.1150   6.1150   6.6274   6.6275   6.6275   6.6275
     7.3470   7.3470   7.3471   7.3471   7.5273   7.5273   7.5273   7.5273
     8.3283   8.3283   8.3284   8.3284   8.7903   8.7903   8.7904   8.7904
     8.8919   8.8919   8.8919   8.8919   9.5642   9.5642   9.5642   9.5642
    13.0737  13.0737  13.0738  13.0738  14.0927  14.0927  14.0928  14.0928
    14.4345  14.4345  14.4346  14.4346  16.2427  16.2427  16.2428  16.2428
    18.0475  18.0475  18.0475  18.0475  18.2958

          k = 0.4500 0.4500 0.3536 ( 18510 PWs)   bands (ev):

   -49.0590 -49.0590 -49.0589 -49.0589 -23.3524 -23.3523 -23.3506 -23.3505
   -23.3068 -23.3067 -23.3065 -23.3065 -23.2652 -23.2651 -23.2633 -23.2632
   -21.9257 -21.9257 -21.9249 -21.9249  -6.7120  -6.7119  -6.6978  -6.6978
    -5.9329  -5.9329  -5.9049  -5.9049  -5.6416  -5.6416  -5.6190  -5.6189
    -3.9612  -3.9612  -3.9497  -3.9497  -3.8245  -3.8245  -3.7738  -3.7738
    -3.4998  -3.4998  -3.4935  -3.4935   5.2467   5.2468   5.3090   5.3091
     6.1113   6.1113   6.1486   6.1486   6.6267   6.6267   6.6337   6.6337
     7.2726   7.2727   7.3477   7.3478   7.4976   7.4977   7.5329   7.5329
     8.3082   8.3082   8.4368   8.4368   8.6796   8.6796   8.8220   8.8220
     8.8651   8.8651   8.9429   8.9429   9.5523   9.5523   9.5777   9.5777
    13.0707  13.0708  13.1038  13.1039  14.0599  14.0600  14.0897  14.0898
    14.4156  14.4157  14.4176  14.4176  16.2391  16.2392  16.3386  16.3386
    17.9814  17.9814  18.0689  18.0689  18.2616

          k = 0.4000 0.4000 0.3536 ( 18500 PWs)   bands (ev):

   -49.0591 -49.0590 -49.0589 -49.0588 -23.3519 -23.3518 -23.3449 -23.3448
   -23.3074 -23.3073 -23.3063 -23.3062 -23.2707 -23.2706 -23.2635 -23.2634
   -21.9270 -21.9270 -21.9241 -21.9241  -6.7030  -6.7029  -6.6499  -6.6499
    -5.9454  -5.9454  -5.8799  -5.8799  -5.6872  -5.6871  -5.6223  -5.6223
    -3.9936  -3.9936  -3.9542  -3.9542  -3.8340  -3.8340  -3.7443  -3.7443
    -3.5255  -3.5255  -3.5140  -3.5140   5.2469   5.2470   5.4893   5.4894
     6.1251   6.1252   6.2192   6.2192   6.6280   6.6280   6.6517   6.6517
     7.0998   7.0999   7.3054   7.3054   7.4537   7.4537   7.5727   7.5727
     8.2729   8.2730   8.4444   8.4444   8.6236   8.6237   8.8578   8.8578
     8.8819   8.8819   9.0259   9.0259   9.5378   9.5378   9.5915   9.5916
    13.0635  13.0636  13.1909  13.1909  13.9447  13.9448  14.0598  14.0599
    14.3756  14.3757  14.3903  14.3904  16.2274  16.2275  16.6083  16.6084
    17.8628  17.8628  18.0572  18.0573  18.2016

          k = 0.3500 0.3500 0.3536 ( 18512 PWs)   bands (ev):

   -49.0593 -49.0592 -49.0587 -49.0586 -23.3512 -23.3511 -23.3362 -23.3361
   -23.3082 -23.3081 -23.3058 -23.3057 -23.2793 -23.2791 -23.2636 -23.2635
   -21.9290 -21.9290 -21.9228 -21.9228  -6.6931  -6.6931  -6.5749  -6.5748
    -5.9600  -5.9600  -5.8467  -5.8466  -5.7510  -5.7509  -5.6271  -5.6270
    -4.0328  -4.0328  -3.9606  -3.9606  -3.8356  -3.8356  -3.7218  -3.7218
    -3.5631  -3.5631  -3.5479  -3.5479   5.2471   5.2472   5.7679   5.7680
     6.1439   6.1440   6.3192   6.3192   6.6301   6.6301   6.6950   6.6950
     6.9085   6.9086   7.1649   7.1649   7.4539   7.4539   7.6506   7.6506
     7.9997   7.9998   8.3587   8.3587   8.7400   8.7401   8.9058   8.9059
     9.0127   9.0127   9.1321   9.1321   9.5192   9.5192   9.6000   9.6000
    13.0512  13.0512  13.3241  13.3242  13.7414  13.7415  13.9490  13.9491
    14.3738  14.3739  14.3831  14.3832  16.2058  16.2059  16.9903  16.9904
    17.7207  17.7208  17.9648  17.9648  18.1096

          k = 0.3000 0.3000 0.3536 ( 18536 PWs)   bands (ev):

   -49.0594 -49.0593 -49.0585 -49.0584 -23.3505 -23.3504 -23.3253 -23.3252
   -23.3091 -23.3090 -23.3052 -23.3051 -23.2899 -23.2898 -23.2638 -23.2637
   -21.9316 -21.9316 -21.9212 -21.9212  -6.6895  -6.6894  -6.4794  -6.4793
    -5.9748  -5.9747  -5.8474  -5.8473  -5.7810  -5.7809  -5.6308  -5.6308
    -4.0692  -4.0692  -3.9675  -3.9675  -3.8337  -3.8337  -3.7109  -3.7109
    -3.6089  -3.6089  -3.5903  -3.5903   5.2474   5.2475   6.1072   6.1073
     6.1528   6.1528   6.4176   6.4176   6.6309   6.6309   6.7424   6.7424
     6.8076   6.8076   6.9359   6.9359   7.4519   7.4519   7.6488   7.6488
     7.7749   7.7749   8.3718   8.3718   8.7814   8.7814   8.9467   8.9468
     9.2057   9.2057   9.2652   9.2652   9.4989   9.4989   9.6003   9.6003
    13.0298  13.0299  13.3611  13.3612  13.6084  13.6085  13.7592  13.7593
    14.3934  14.3934  14.4382  14.4383  16.1709  16.1710  17.3503  17.3504
    17.5821  17.5821  17.8412  17.8412  17.9825

          k = 0.2500 0.2500 0.3536 ( 18550 PWs)   bands (ev):

   -49.0596 -49.0595 -49.0583 -49.0582 -23.3498 -23.3497 -23.3145 -23.3144
   -23.3093 -23.3093 -23.3043 -23.3042 -23.3014 -23.3013 -23.2637 -23.2636
   -21.9345 -21.9345 -21.9194 -21.9194  -6.6997  -6.6996  -6.3724  -6.3724
    -5.9871  -5.9871  -5.9114  -5.9114  -5.7374  -5.7374  -5.6316  -5.6315
    -4.0971  -4.0971  -3.9736  -3.9736  -3.8323  -3.8323  -3.7173  -3.7173
    -3.6547  -3.6547  -3.6340  -3.6340   5.2475   5.2476   6.1223   6.1223
     6.4179   6.4179   6.5159   6.5160   6.5603   6.5604   6.6472   6.6472
     6.6945   6.6945   7.0150   7.0150   7.2882   7.2882   7.5754   7.5754
     7.8929   7.8929   8.4082   8.4082   8.8111   8.8111   9.0040   9.0041
     9.3180   9.3180   9.3771   9.3771   9.5120   9.5120   9.6213   9.6213
    12.9501  12.9501  13.1253  13.1253  13.5435  13.5436  13.7877  13.7877
    14.4143  14.4144  14.5486  14.5487  16.1164  16.1165  17.3484  17.3484
    17.5099  17.5099  17.7717  17.7717  17.8332

          k = 0.2000 0.2000 0.3536 ( 18542 PWs)   bands (ev):

   -49.0598 -49.0597 -49.0581 -49.0580 -23.3496 -23.3494 -23.3131 -23.3130
   -23.3118 -23.3117 -23.3053 -23.3052 -23.2991 -23.2990 -23.2633 -23.2632
   -21.9374 -21.9374 -21.9176 -21.9176  -6.7269  -6.7268  -6.2647  -6.2646
    -6.0062  -6.0061  -5.9539  -5.9539  -5.6886  -5.6886  -5.6282  -5.6281
    -4.1142  -4.1142  -3.9776  -3.9776  -3.8370  -3.8370  -3.7510  -3.7510
    -3.6834  -3.6834  -3.6715  -3.6715   5.2468   5.2469   6.0551   6.0552
     6.1925   6.1926   6.4672   6.4672   6.6231   6.6231   6.6580   6.6580
     6.8465   6.8466   7.1132   7.1132   7.3153   7.3153   7.6064   7.6064
     8.0232   8.0232   8.4586   8.4586   8.8562   8.8563   9.0825   9.0826
     9.3133   9.3134   9.4044   9.4044   9.5264   9.5264   9.7512   9.7512
    12.6587  12.6588  13.0460  13.0461  13.3447  13.3448  14.0098  14.0099
    14.4388  14.4389  14.6902  14.6903  16.0306  16.0307  17.1824  17.1824
    17.3557  17.3557  17.4296  17.4297  17.6944

          k = 0.1500 0.1500 0.3536 ( 18532 PWs)   bands (ev):

   -49.0600 -49.0599 -49.0580 -49.0579 -23.3501 -23.3500 -23.3218 -23.3217
   -23.3131 -23.3130 -23.3043 -23.3042 -23.2899 -23.2898 -23.2621 -23.2620
   -21.9400 -21.9400 -21.9159 -21.9159  -6.7661  -6.7660  -6.1695  -6.1695
    -6.0415  -6.0414  -5.9524  -5.9524  -5.6481  -5.6481  -5.6196  -5.6196
    -4.1206  -4.1206  -3.9792  -3.9792  -3.8528  -3.8528  -3.7965  -3.7965
    -3.7024  -3.7024  -3.6934  -3.6934   5.2433   5.2434   5.8250   5.8251
     5.9814   5.9814   6.4766   6.4767   6.6244   6.6245   6.6769   6.6769
     6.9834   6.9834   7.1531   7.1531   7.6229   7.6229   7.6506   7.6506
     8.1435   8.1436   8.4995   8.4996   8.9471   8.9472   9.1782   9.1782
     9.1871   9.1871   9.4606   9.4606   9.5244   9.5244   9.8931   9.8932
    12.3218  12.3219  13.0186  13.0186  13.1911  13.1912  14.2089  14.2090
    14.4665  14.4666  14.8454  14.8455  15.8985  15.8986  17.0031  17.0031
    17.0790  17.0790  17.2141  17.2141  17.5587

          k = 0.1000 0.1000 0.3536 ( 18540 PWs)   bands (ev):

   -49.0602 -49.0601 -49.0578 -49.0577 -23.3516 -23.3515 -23.3280 -23.3279
   -23.3139 -23.3138 -23.3038 -23.3037 -23.2831 -23.2830 -23.2602 -23.2601
   -21.9421 -21.9421 -21.9146 -21.9146  -6.8060  -6.8060  -6.1120  -6.1119
    -6.0575  -6.0574  -5.9313  -5.9313  -5.6243  -5.6242  -5.6056  -5.6055
    -4.1194  -4.1194  -3.9796  -3.9796  -3.8774  -3.8774  -3.8326  -3.8326
    -3.7215  -3.7215  -3.6997  -3.6997   5.2313   5.2314   5.5452   5.5453
     5.9128   5.9128   6.4802   6.4802   6.6289   6.6289   6.6965   6.6966
     6.9051   6.9051   7.4211   7.4211   7.6709   7.6709   7.9027   7.9027
     8.2390   8.2391   8.5073   8.5073   8.9245   8.9245   9.1723   9.1723
     9.3032   9.3033   9.4820   9.4821   9.5347   9.5347   9.9986   9.9987
    12.0253  12.0254  12.9893  12.9893  13.0996  13.0997  14.3320  14.3321
    14.5112  14.5113  14.9897  14.9898  15.7289  15.7290  16.7856  16.7856
    16.8966  16.8966  17.1140  17.1140  17.4698

          k = 0.0500 0.0500 0.3536 ( 18524 PWs)   bands (ev):

   -49.0603 -49.0602 -49.0577 -49.0576 -23.3534 -23.3533 -23.3311 -23.3310
   -23.3144 -23.3143 -23.3035 -23.3034 -23.2796 -23.2795 -23.2580 -23.2579
   -21.9435 -21.9435 -21.9138 -21.9138  -6.8353  -6.8352  -6.1121  -6.1120
    -6.0356  -6.0356  -5.9052  -5.9052  -5.6150  -5.6150  -5.5926  -5.5926
    -4.1152  -4.1152  -3.9810  -3.9810  -3.8964  -3.8964  -3.8557  -3.8557
    -3.7340  -3.7340  -3.7012  -3.7012   5.1990   5.1991   5.3898   5.3899
     5.8690   5.8691   6.4802   6.4802   6.6321   6.6322   6.7132   6.7132
     6.8579   6.8579   7.6221   7.6222   7.6904   7.6905   8.1357   8.1357
     8.3005   8.3006   8.4909   8.4910   8.6983   8.6984   9.3337   9.3338
     9.4176   9.4177   9.4798   9.4798   9.5370   9.5371  10.0620  10.0621
    11.8166  11.8167  12.9585  12.9586  13.0640  13.0641  14.3626  14.3626
    14.5665  14.5665  15.0937  15.0938  15.5860  15.5861  16.6423  16.6423
    16.8084  16.8085  17.0620  17.0620  17.4284

          k = 0.0000 0.0000 0.3536 ( 18458 PWs)   bands (ev):

   -49.0603 -49.0602 -49.0577 -49.0576 -23.3542 -23.3541 -23.3320 -23.3319
   -23.3146 -23.3145 -23.3034 -23.3033 -23.2786 -23.2784 -23.2571 -23.2570
   -21.9440 -21.9440 -21.9135 -21.9135  -6.8459  -6.8458  -6.1166  -6.1165
    -6.0252  -6.0252  -5.8929  -5.8929  -5.6128  -5.6127  -5.5880  -5.5879
    -4.1130  -4.1130  -3.9823  -3.9823  -3.9022  -3.9022  -3.8643  -3.8643
    -3.7384  -3.7384  -3.7013  -3.7013   5.1731   5.1732   5.3513   5.3514
     5.8540   5.8541   6.4796   6.4796   6.6333   6.6333   6.7200   6.7201
     6.8419   6.8419   7.6961   7.6962   7.6980   7.6980   8.2974   8.2975
     8.3420   8.3421   8.4476   8.4477   8.5393   8.5394   9.4256   9.4257
     9.4456   9.4456   9.4966   9.4967   9.5165   9.5165  10.0832  10.0833
    11.7401  11.7402  12.9460  12.9460  13.0560  13.0561  14.3619  14.3620
    14.5879  14.5880  15.1319  15.1320  15.5332  15.5333  16.5968  16.5968
    16.7798  16.7798  17.0473  17.0473  17.4401

     Writing all to output data dir ./out/smo.save/ :
     XML data file, pseudopotentials, collected wavefunctions

     init_run     :      2.02s CPU      2.52s WALL (       1 calls)
     electrons    :    101.71s CPU    114.81s WALL (       1 calls)

     Called by init_run:
     wfcinit      :      0.00s CPU      0.07s WALL (       1 calls)
     wfcinit:atom :      0.02s CPU      0.03s WALL (       1 calls)
     wfcinit:wfcr :      1.80s CPU      1.81s WALL (       1 calls)
     potinit      :      0.35s CPU      0.58s WALL (       1 calls)
     hinit0       :      1.43s CPU      1.46s WALL (       1 calls)

     Called by electrons:
     c_bands      :    101.70s CPU    111.30s WALL (       1 calls)
     v_of_rho     :      0.17s CPU      0.23s WALL (       1 calls)
     v_h          :      0.07s CPU      0.11s WALL (       1 calls)
     v_xc         :      0.09s CPU      0.12s WALL (       1 calls)
     newd         :      0.07s CPU      0.08s WALL (       1 calls)
     PAW_pot      :      0.03s CPU      0.03s WALL (       1 calls)

     Called by c_bands:
     init_us_2    :      0.05s CPU      0.09s WALL (       1 calls)
     cegterg      :     97.56s CPU     98.12s WALL (       6 calls)

     Called by sum_band:

     Called by *egterg:
     cdiaghg      :      1.81s CPU      1.82s WALL (     121 calls)
     cegterg:over :      9.42s CPU      9.45s WALL (     120 calls)
     cegterg:upda :      5.82s CPU      5.86s WALL (     120 calls)
     cegterg:last :     13.44s CPU     13.48s WALL (      43 calls)
     h_psi        :     60.43s CPU     60.75s WALL (     127 calls)
     s_psi        :      6.90s CPU      6.93s WALL (     127 calls)
     g_psi        :      0.22s CPU      0.23s WALL (     120 calls)

     Called by h_psi:
     h_psi:calbec :      6.30s CPU      6.34s WALL (     127 calls)
     vloc_psi     :     46.96s CPU     47.16s WALL (     127 calls)
                                        0.00s GPU  (     127 calls)
     add_vuspsi   :      6.90s CPU      6.94s WALL (     127 calls)

     General routines
     calbec       :      6.30s CPU      6.33s WALL (     127 calls)
     fft          :      0.16s CPU      0.16s WALL (       6 calls)
     ffts         :      0.01s CPU      0.01s WALL (       1 calls)
     fftw         :     42.56s CPU     42.74s WALL (    9552 calls)
     interpolate  :      0.05s CPU      0.07s WALL (       1 calls)
     davcio       :      0.00s CPU      3.55s WALL (       2 calls)

     Parallel routines

     PAW routines
     PAW_pot      :      0.03s CPU      0.03s WALL (       1 calls)

     PWSCF        :   1m44.24s CPU   2m 2.47s WALL


   This run was terminated on:  20:38:28  29Nov2025            

=------------------------------------------------------------------------------=
   JOB DONE.
=------------------------------------------------------------------------------=
