
     Program PWSCF v.7.5 starts on 29Nov2025 at 20:35: 3 
        Git branch: develop
        Last git commit: 70e07caa2a5fab3dd9374bc01196f67e923fc5ea
        Last git commit date: Mon Aug 18 10:06:47 2025 +0000
        Last git commit subject: Merge branch 'stressed-by-optional-variables' into

     This program is part of the open-source Quantum ESPRESSO suite
     for quantum simulation of materials; please cite
         "P. Giannozzi et al., J. Phys.:Condens. Matter 21 395502 (2009);
         "P. Giannozzi et al., J. Phys.:Condens. Matter 29 465901 (2017);
         "P. Giannozzi et al., J. Chem. Phys. 152 154105 (2020);
          URL http://www.quantum-espresso.org", 
     in publications or presentations arising from this work. More details at
     http://www.quantum-espresso.org/quote

     Parallel version (MPI), running on   128 processors

     MPI processes distributed on     1 nodes
     981959 MiB available memory on the printing compute node when the environment starts

     Waiting for input...
     Reading input from standard input
Warning: card &CELL ignored
Warning: card &FCP ignored
Warning: card &RISM ignored

     Current dimensions of program PWSCF are:
     Max number of different atomic species (ntypx) = 10
     Max number of k-points (npk) =  40000
     Max angular momentum in pseudopotentials (lmaxx) =  4
     file Sr.pz-spn-kjpaw_psl.1.0.0.UPF: wavefunction(s)  4P renormalized
     file Mo.pz-spn-kjpaw_psl.1.0.0.UPF: wavefunction(s)  4S 4D renormalized
     file O.pz-n-kjpaw_psl.1.0.0.UPF: wavefunction(s)  2S 2P renormalized
     Found identity + ( -0.5000  0.5000 -0.5000) symmetry
     This is a supercell, fractional translations are disabled
     Message from routine setup:
     using ibrav=0 with symmetry is DISCOURAGED, use correct ibrav instead

     K-points division:     npool     =     128
     Subspace diagonalization in iterative solution of the eigenvalue problem:
     a serial algorithm will be used

     Message from routine divide_et_impera:
     suboptimal parallelization: some nodes have no k-points

     G-vector sticks info
     --------------------
     sticks:   dense  smooth     PW     G-vecs:    dense   smooth      PW
     Sum        3577    1789    497               228191    80831   11835

     Using Slab Decomposition



     bravais-lattice index     =            0
     lattice parameter (alat)  =      10.6088  a.u.
     unit-cell volume          =    1688.5722 (a.u.)^3
     number of atoms/cell      =           20
     number of atomic types    =            3
     number of electrons       =       168.00
     number of Kohn-Sham states=          101
     kinetic-energy cutoff     =      50.0000  Ry
     charge density cutoff     =     400.0000  Ry
     scf convergence threshold =      1.0E-09
     mixing beta               =       0.4000
     number of iterations used =            8  plain     mixing
     Exchange-correlation= SLA  PZ   NOGX NOGC
                           (   1   1   0   0   0   0   0)

     celldm(1)=  10.608847  celldm(2)=   0.000000  celldm(3)=   0.000000
     celldm(4)=   0.000000  celldm(5)=   0.000000  celldm(6)=   0.000000

     crystal axes: (cart. coord. in units of alat)
               a(1) = (   1.000000   0.000000   0.000000 )  
               a(2) = (   0.000000   1.000000   0.000000 )  
               a(3) = (   0.000000   0.000000   1.414214 )  

     reciprocal axes: (cart. coord. in units 2 pi/alat)
               b(1) = (  1.000000  0.000000  0.000000 )  
               b(2) = (  0.000000  1.000000  0.000000 )  
               b(3) = (  0.000000  0.000000  0.707107 )  


     PseudoPot. # 1 for Sr read from file:
     ../../../pseudo/Sr.pz-spn-kjpaw_psl.1.0.0.UPF
     MD5 check sum: 14b1f655f5497b386c4f305353cf4fd4
     Pseudo is Projector augmented-wave + core cor, Zval = 10.0
     Generated using 'atomic' code by A. Dal Corso  v.7.3
     Shape of augmentation charge: PSQ
     Using radial grid of 1221 points,  6 beta functions with: 
                l(1) =   0
                l(2) =   0
                l(3) =   1
                l(4) =   1
                l(5) =   2
                l(6) =   2
     Q(r) pseudized with 0 coefficients 


     PseudoPot. # 2 for Mo read from file:
     ../../../pseudo/Mo.pz-spn-kjpaw_psl.1.0.0.UPF
     MD5 check sum: 2e12aff744a4785a34e7548d4bec1d21
     Pseudo is Projector augmented-wave + core cor, Zval = 14.0
     Generated using 'atomic' code by A. Dal Corso  v.7.3
     Shape of augmentation charge: PSQ
     Using radial grid of 1229 points,  6 beta functions with: 
                l(1) =   0
                l(2) =   0
                l(3) =   1
                l(4) =   1
                l(5) =   2
                l(6) =   2
     Q(r) pseudized with 0 coefficients 


     PseudoPot. # 3 for O  read from file:
     ../../../pseudo/O.pz-n-kjpaw_psl.1.0.0.UPF
     MD5 check sum: 71a951e35f67dc87891058fc5642ed8f
     Pseudo is Projector augmented-wave + core cor, Zval =  6.0
     Generated using 'atomic' code by A. Dal Corso  v.7.3
     Shape of augmentation charge: PSQ
     Using radial grid of 1095 points,  4 beta functions with: 
                l(1) =   0
                l(2) =   0
                l(3) =   1
                l(4) =   1
     Q(r) pseudized with 0 coefficients 


     atomic species   valence    mass     pseudopotential
     Sr               10.00    87.62000     Sr( 1.00)
     Mo               14.00    95.95000     Mo( 1.00)
     O                 6.00    15.99900     O ( 1.00)

      4 Sym. Ops., with inversion, found


                                    s                        frac. trans.

      isym =  1     identity                                     

 cryst.   s( 1) = (     1          0          0      )
                  (     0          1          0      )
                  (     0          0          1      )

 cart.    s( 1) = (  1.0000000  0.0000000  0.0000000 )
                  (  0.0000000  1.0000000  0.0000000 )
                  (  0.0000000  0.0000000  1.0000000 )


      isym =  2     180 deg rotation - cart. axis [1,0,0]        

 cryst.   s( 2) = (     1          0          0      )
                  (     0         -1          0      )
                  (     0          0         -1      )

 cart.    s( 2) = (  1.0000000  0.0000000  0.0000000 )
                  (  0.0000000 -1.0000000  0.0000000 )
                  (  0.0000000  0.0000000 -1.0000000 )


      isym =  3     inversion                                    

 cryst.   s( 3) = (    -1          0          0      )
                  (     0         -1          0      )
                  (     0          0         -1      )

 cart.    s( 3) = ( -1.0000000  0.0000000  0.0000000 )
                  (  0.0000000 -1.0000000  0.0000000 )
                  (  0.0000000  0.0000000 -1.0000000 )


      isym =  4     inv. 180 deg rotation - cart. axis [1,0,0]   

 cryst.   s( 4) = (    -1          0          0      )
                  (     0          1          0      )
                  (     0          0          1      )

 cart.    s( 4) = ( -1.0000000  0.0000000  0.0000000 )
                  (  0.0000000  1.0000000  0.0000000 )
                  (  0.0000000  0.0000000  1.0000000 )


   Cartesian axes

     site n.     atom                  positions (alat units)
         1        Sr     tau(   1) = (   0.0000000   0.5000000   0.3535535  )
         2        Sr     tau(   2) = (   0.0000000   0.5000000   1.0606604  )
         3        Sr     tau(   3) = (   0.5000000   0.0000000   1.0606604  )
         4        Sr     tau(   4) = (   0.5000000   0.0000000   0.3535535  )
         5        Mo     tau(   5) = (   0.0000000   0.0000000   0.0000000  )
         6        Mo     tau(   6) = (   0.0000000   0.0000000   0.7071069  )
         7        Mo     tau(   7) = (   0.5000000   0.5000000   0.7071069  )
         8        Mo     tau(   8) = (   0.5000000   0.5000000   0.0000000  )
         9        O      tau(   9) = (   0.2500000   0.7500000  -0.0377850  )
        10        O      tau(  10) = (   0.2500000   0.2500000   0.0377850  )
        11        O      tau(  11) = (   0.7500000   0.2500000   0.6693220  )
        12        O      tau(  12) = (   0.7500000   0.7500000   0.7448919  )
        13        O      tau(  13) = (   0.7500000   0.2500000   0.0377850  )
        14        O      tau(  14) = (   0.7500000   0.7500000  -0.0377850  )
        15        O      tau(  15) = (   0.2500000   0.7500000   0.7448919  )
        16        O      tau(  16) = (   0.2500000   0.2500000   0.6693220  )
        17        O      tau(  17) = (   0.0000000  -0.0534360   0.3535535  )
        18        O      tau(  18) = (   0.0000000   0.0534360   1.0606604  )
        19        O      tau(  19) = (   0.5000000   0.4465640   1.0606604  )
        20        O      tau(  20) = (   0.5000000   0.5534360   0.3535535  )

   Crystallographic axes

     site n.     atom                  positions (cryst. coord.)
         1        Sr     tau(   1) = (  0.0000000  0.5000000  0.2500000  )
         2        Sr     tau(   2) = (  0.0000000  0.5000000  0.7500000  )
         3        Sr     tau(   3) = (  0.5000000  0.0000000  0.7500000  )
         4        Sr     tau(   4) = (  0.5000000  0.0000000  0.2500000  )
         5        Mo     tau(   5) = (  0.0000000  0.0000000  0.0000000  )
         6        Mo     tau(   6) = (  0.0000000  0.0000000  0.5000000  )
         7        Mo     tau(   7) = (  0.5000000  0.5000000  0.5000000  )
         8        Mo     tau(   8) = (  0.5000000  0.5000000  0.0000000  )
         9        O      tau(   9) = (  0.2500000  0.7500000 -0.0267180  )
        10        O      tau(  10) = (  0.2500000  0.2500000  0.0267180  )
        11        O      tau(  11) = (  0.7500000  0.2500000  0.4732820  )
        12        O      tau(  12) = (  0.7500000  0.7500000  0.5267180  )
        13        O      tau(  13) = (  0.7500000  0.2500000  0.0267180  )
        14        O      tau(  14) = (  0.7500000  0.7500000 -0.0267180  )
        15        O      tau(  15) = (  0.2500000  0.7500000  0.5267180  )
        16        O      tau(  16) = (  0.2500000  0.2500000  0.4732820  )
        17        O      tau(  17) = (  0.0000000 -0.0534360  0.2500000  )
        18        O      tau(  18) = (  0.0000000  0.0534360  0.7500000  )
        19        O      tau(  19) = (  0.5000000  0.4465640  0.7500000  )
        20        O      tau(  20) = (  0.5000000  0.5534360  0.2500000  )

     number of k points=    39  Fermi-Dirac smearing, width (Ry)=  0.0015
                       cart. coord. in units 2pi/alat
        k(    1) = (   0.0000000   0.0000000   0.0000000), wk =   0.0160000
        k(    2) = (   0.0000000   0.0000000   0.1414213), wk =   0.0320000
        k(    3) = (   0.0000000   0.0000000   0.2828427), wk =   0.0320000
        k(    4) = (   0.0000000   0.2000000   0.0000000), wk =   0.0320000
        k(    5) = (   0.0000000   0.2000000   0.1414213), wk =   0.0320000
        k(    6) = (   0.0000000   0.2000000   0.2828427), wk =   0.0320000
        k(    7) = (   0.0000000   0.4000000   0.0000000), wk =   0.0320000
        k(    8) = (   0.0000000   0.4000000   0.1414213), wk =   0.0320000
        k(    9) = (   0.0000000   0.4000000   0.2828427), wk =   0.0320000
        k(   10) = (   0.2000000   0.2000000   0.0000000), wk =   0.0640000
        k(   11) = (   0.2000000   0.2000000   0.1414213), wk =   0.0640000
        k(   12) = (   0.2000000   0.2000000   0.2828427), wk =   0.0640000
        k(   13) = (   0.2000000   0.4000000   0.0000000), wk =   0.0640000
        k(   14) = (   0.2000000   0.4000000   0.1414213), wk =   0.0640000
        k(   15) = (   0.2000000   0.4000000   0.2828427), wk =   0.0640000
        k(   16) = (   0.4000000   0.4000000   0.0000000), wk =   0.0640000
        k(   17) = (   0.4000000   0.4000000   0.1414213), wk =   0.0640000
        k(   18) = (   0.4000000   0.4000000   0.2828427), wk =   0.0640000
        k(   19) = (   0.2000000   0.0000000   0.0000000), wk =   0.0320000
        k(   20) = (   0.2000000   0.0000000  -0.1414213), wk =   0.0640000
        k(   21) = (   0.0000000   0.2000000  -0.1414213), wk =   0.0320000
        k(   22) = (   0.2000000   0.0000000  -0.2828427), wk =   0.0640000
        k(   23) = (   0.0000000   0.2000000  -0.2828427), wk =   0.0320000
        k(   24) = (   0.4000000   0.0000000   0.0000000), wk =   0.0320000
        k(   25) = (   0.4000000   0.0000000  -0.1414213), wk =   0.0640000
        k(   26) = (   0.0000000   0.4000000  -0.1414213), wk =   0.0320000
        k(   27) = (   0.4000000   0.0000000  -0.2828427), wk =   0.0640000
        k(   28) = (   0.0000000   0.4000000  -0.2828427), wk =   0.0320000
        k(   29) = (   0.2000000   0.2000000  -0.1414213), wk =   0.0640000
        k(   30) = (   0.2000000   0.2000000  -0.2828427), wk =   0.0640000
        k(   31) = (   0.4000000   0.2000000   0.0000000), wk =   0.0640000
        k(   32) = (   0.4000000   0.2000000  -0.1414213), wk =   0.0640000
        k(   33) = (  -0.4000000  -0.2000000  -0.1414213), wk =   0.0640000
        k(   34) = (  -0.2000000   0.4000000  -0.1414213), wk =   0.0640000
        k(   35) = (   0.4000000   0.2000000  -0.2828427), wk =   0.0640000
        k(   36) = (  -0.4000000  -0.2000000  -0.2828427), wk =   0.0640000
        k(   37) = (  -0.2000000   0.4000000  -0.2828427), wk =   0.0640000
        k(   38) = (   0.4000000   0.4000000  -0.1414213), wk =   0.0640000
        k(   39) = (   0.4000000   0.4000000  -0.2828427), wk =   0.0640000

                       cryst. coord.
        k(    1) = (   0.0000000   0.0000000   0.0000000), wk =   0.0160000
        k(    2) = (   0.0000000   0.0000000   0.2000000), wk =   0.0320000
        k(    3) = (   0.0000000   0.0000000   0.4000000), wk =   0.0320000
        k(    4) = (   0.0000000   0.2000000   0.0000000), wk =   0.0320000
        k(    5) = (   0.0000000   0.2000000   0.2000000), wk =   0.0320000
        k(    6) = (   0.0000000   0.2000000   0.4000000), wk =   0.0320000
        k(    7) = (   0.0000000   0.4000000   0.0000000), wk =   0.0320000
        k(    8) = (   0.0000000   0.4000000   0.2000000), wk =   0.0320000
        k(    9) = (   0.0000000   0.4000000   0.4000000), wk =   0.0320000
        k(   10) = (   0.2000000   0.2000000   0.0000000), wk =   0.0640000
        k(   11) = (   0.2000000   0.2000000   0.2000000), wk =   0.0640000
        k(   12) = (   0.2000000   0.2000000   0.4000000), wk =   0.0640000
        k(   13) = (   0.2000000   0.4000000   0.0000000), wk =   0.0640000
        k(   14) = (   0.2000000   0.4000000   0.2000000), wk =   0.0640000
        k(   15) = (   0.2000000   0.4000000   0.4000000), wk =   0.0640000
        k(   16) = (   0.4000000   0.4000000   0.0000000), wk =   0.0640000
        k(   17) = (   0.4000000   0.4000000   0.2000000), wk =   0.0640000
        k(   18) = (   0.4000000   0.4000000   0.4000000), wk =   0.0640000
        k(   19) = (   0.2000000   0.0000000   0.0000000), wk =   0.0320000
        k(   20) = (   0.2000000   0.0000000  -0.2000000), wk =   0.0640000
        k(   21) = (   0.0000000   0.2000000  -0.2000000), wk =   0.0320000
        k(   22) = (   0.2000000   0.0000000  -0.4000000), wk =   0.0640000
        k(   23) = (   0.0000000   0.2000000  -0.4000000), wk =   0.0320000
        k(   24) = (   0.4000000   0.0000000   0.0000000), wk =   0.0320000
        k(   25) = (   0.4000000   0.0000000  -0.2000000), wk =   0.0640000
        k(   26) = (   0.0000000   0.4000000  -0.2000000), wk =   0.0320000
        k(   27) = (   0.4000000   0.0000000  -0.4000000), wk =   0.0640000
        k(   28) = (   0.0000000   0.4000000  -0.4000000), wk =   0.0320000
        k(   29) = (   0.2000000   0.2000000  -0.2000000), wk =   0.0640000
        k(   30) = (   0.2000000   0.2000000  -0.4000000), wk =   0.0640000
        k(   31) = (   0.4000000   0.2000000   0.0000000), wk =   0.0640000
        k(   32) = (   0.4000000   0.2000000  -0.2000000), wk =   0.0640000
        k(   33) = (  -0.4000000  -0.2000000  -0.2000000), wk =   0.0640000
        k(   34) = (  -0.2000000   0.4000000  -0.2000000), wk =   0.0640000
        k(   35) = (   0.4000000   0.2000000  -0.4000000), wk =   0.0640000
        k(   36) = (  -0.4000000  -0.2000000  -0.4000000), wk =   0.0640000
        k(   37) = (  -0.2000000   0.4000000  -0.4000000), wk =   0.0640000
        k(   38) = (   0.4000000   0.4000000  -0.2000000), wk =   0.0640000
        k(   39) = (   0.4000000   0.4000000  -0.4000000), wk =   0.0640000

     Dense  grid:   228191 G-vectors     FFT dimensions: (  72,  72,  96)

     Smooth grid:    80831 G-vectors     FFT dimensions: (  48,  48,  72)

     Dynamical RAM for                 wfc:      15.54 MB

     Dynamical RAM for     wfc (w. buffer):      15.54 MB

     Dynamical RAM for           str. fact:      10.45 MB

     Dynamical RAM for           local pot:       0.00 MB

     Dynamical RAM for          nlocal pot:      36.92 MB

     Dynamical RAM for                qrad:       4.82 MB

     Dynamical RAM for          rho,v,vnew:      21.84 MB

     Dynamical RAM for               rhoin:       7.28 MB

     Dynamical RAM for            rho*nmix:      55.71 MB

     Dynamical RAM for           G-vectors:      13.67 MB

     Dynamical RAM for          h,s,v(r/c):       1.87 MB

     Dynamical RAM for          <psi|beta>:       0.37 MB

     Dynamical RAM for                 psi:      31.07 MB

     Dynamical RAM for                hpsi:      31.07 MB

     Dynamical RAM for                spsi:      31.07 MB

     Dynamical RAM for      wfcinit/wfcrot:      31.31 MB

     Dynamical RAM for           addusdens:       8.84 MB

     Estimated static dynamical RAM per process >     143.42 MB

     Estimated max dynamical RAM per process >     294.58 MB

     Estimated total dynamical RAM >      29.91 GB

     Check: negative core charge=   -0.000002

     Initial potential from superposition of free atoms

     starting charge     167.9716, renormalised to     168.0000
     Starting wfcs are  120 randomized atomic wfcs
     Checking if some PAW data can be deallocated... 
       PAW data deallocated on  100 nodes for type:  1
       PAW data deallocated on  100 nodes for type:  2
       PAW data deallocated on   56 nodes for type:  3

     total cpu time spent up to now is        3.9 secs

     per-process dynamical memory:   215.7 Mb

     Self-consistent Calculation

     iteration #  1     ecut=    50.00 Ry     beta= 0.40
     Davidson diagonalization with overlap

---- Real-time Memory Report at c_bands before calling an iterative solver
           263 MiB given to the printing process from OS
           217 MiB allocation reported by mallinfo(arena+hblkhd)
        968313 MiB available memory on the node where the printing process lives
------------------
     ethr =  1.00E-02,  avg # of iterations =  2.2

     total cpu time spent up to now is        6.6 secs

     total energy              =   -2921.34836094 Ry
     estimated scf accuracy    <       5.84025948 Ry

     iteration #  2     ecut=    50.00 Ry     beta= 0.40
     Davidson diagonalization with overlap

---- Real-time Memory Report at c_bands before calling an iterative solver
           330 MiB given to the printing process from OS
           249 MiB allocation reported by mallinfo(arena+hblkhd)
        966750 MiB available memory on the node where the printing process lives
------------------
     ethr =  3.48E-03,  avg # of iterations =  4.1

     total cpu time spent up to now is        9.6 secs

     total energy              =   -2923.38251268 Ry
     estimated scf accuracy    <       1.75501552 Ry

     iteration #  3     ecut=    50.00 Ry     beta= 0.40
     Davidson diagonalization with overlap

---- Real-time Memory Report at c_bands before calling an iterative solver
           352 MiB given to the printing process from OS
           273 MiB allocation reported by mallinfo(arena+hblkhd)
        964010 MiB available memory on the node where the printing process lives
------------------
     ethr =  1.04E-03,  avg # of iterations =  3.2

     total cpu time spent up to now is       12.6 secs

     total energy              =   -2923.68714699 Ry
     estimated scf accuracy    <       0.58351703 Ry

     iteration #  4     ecut=    50.00 Ry     beta= 0.40
     Davidson diagonalization with overlap

---- Real-time Memory Report at c_bands before calling an iterative solver
           357 MiB given to the printing process from OS
           278 MiB allocation reported by mallinfo(arena+hblkhd)
        964185 MiB available memory on the node where the printing process lives
------------------
     ethr =  3.47E-04,  avg # of iterations = 15.0

     total cpu time spent up to now is       16.8 secs

     total energy              =   -2923.74382493 Ry
     estimated scf accuracy    <       1.63137572 Ry

     iteration #  5     ecut=    50.00 Ry     beta= 0.40
     Davidson diagonalization with overlap

---- Real-time Memory Report at c_bands before calling an iterative solver
           359 MiB given to the printing process from OS
           280 MiB allocation reported by mallinfo(arena+hblkhd)
        964465 MiB available memory on the node where the printing process lives
------------------
     ethr =  3.47E-04,  avg # of iterations =  1.4

     total cpu time spent up to now is       19.2 secs

     total energy              =   -2923.80302983 Ry
     estimated scf accuracy    <       0.08474622 Ry

     iteration #  6     ecut=    50.00 Ry     beta= 0.40
     Davidson diagonalization with overlap

---- Real-time Memory Report at c_bands before calling an iterative solver
           362 MiB given to the printing process from OS
           283 MiB allocation reported by mallinfo(arena+hblkhd)
        964621 MiB available memory on the node where the printing process lives
------------------
     ethr =  5.04E-05,  avg # of iterations = 11.4

     total cpu time spent up to now is       23.2 secs

     total energy              =   -2923.80341557 Ry
     estimated scf accuracy    <       0.20749118 Ry

     iteration #  7     ecut=    50.00 Ry     beta= 0.40
     Davidson diagonalization with overlap

---- Real-time Memory Report at c_bands before calling an iterative solver
           365 MiB given to the printing process from OS
           285 MiB allocation reported by mallinfo(arena+hblkhd)
        964889 MiB available memory on the node where the printing process lives
------------------
     ethr =  5.04E-05,  avg # of iterations =  2.5

     total cpu time spent up to now is       26.4 secs

     total energy              =   -2923.81100821 Ry
     estimated scf accuracy    <       0.11218922 Ry

     iteration #  8     ecut=    50.00 Ry     beta= 0.40
     Davidson diagonalization with overlap

---- Real-time Memory Report at c_bands before calling an iterative solver
           367 MiB given to the printing process from OS
           288 MiB allocation reported by mallinfo(arena+hblkhd)
        965084 MiB available memory on the node where the printing process lives
------------------
     ethr =  5.04E-05,  avg # of iterations =  1.1

     total cpu time spent up to now is       28.8 secs

     total energy              =   -2923.81596059 Ry
     estimated scf accuracy    <       0.02972049 Ry

     iteration #  9     ecut=    50.00 Ry     beta= 0.40
     Davidson diagonalization with overlap

---- Real-time Memory Report at c_bands before calling an iterative solver
           370 MiB given to the printing process from OS
           290 MiB allocation reported by mallinfo(arena+hblkhd)
        965244 MiB available memory on the node where the printing process lives
------------------
     c_bands:  2 eigenvalues not converged
     ethr =  1.77E-05,  avg # of iterations =  7.6

     total cpu time spent up to now is       32.5 secs

     total energy              =   -2923.81683460 Ry
     estimated scf accuracy    <       0.00902064 Ry

     iteration # 10     ecut=    50.00 Ry     beta= 0.40
     Davidson diagonalization with overlap

---- Real-time Memory Report at c_bands before calling an iterative solver
           372 MiB given to the printing process from OS
           293 MiB allocation reported by mallinfo(arena+hblkhd)
        965486 MiB available memory on the node where the printing process lives
------------------
     ethr =  5.37E-06,  avg # of iterations =  9.9

     total cpu time spent up to now is       36.1 secs

     total energy              =   -2923.81588977 Ry
     estimated scf accuracy    <       0.00204621 Ry

     iteration # 11     ecut=    50.00 Ry     beta= 0.40
     Davidson diagonalization with overlap

---- Real-time Memory Report at c_bands before calling an iterative solver
           375 MiB given to the printing process from OS
           295 MiB allocation reported by mallinfo(arena+hblkhd)
        965760 MiB available memory on the node where the printing process lives
------------------
     ethr =  1.22E-06,  avg # of iterations = 12.7

     total cpu time spent up to now is       41.5 secs

     total energy              =   -2923.81663529 Ry
     estimated scf accuracy    <       0.00158394 Ry

     iteration # 12     ecut=    50.00 Ry     beta= 0.40
     Davidson diagonalization with overlap

---- Real-time Memory Report at c_bands before calling an iterative solver
           375 MiB given to the printing process from OS
           295 MiB allocation reported by mallinfo(arena+hblkhd)
        966073 MiB available memory on the node where the printing process lives
------------------
     ethr =  9.43E-07,  avg # of iterations =  3.8

     total cpu time spent up to now is       44.8 secs

     total energy              =   -2923.81674078 Ry
     estimated scf accuracy    <       0.00016056 Ry

     iteration # 13     ecut=    50.00 Ry     beta= 0.40
     Davidson diagonalization with overlap

---- Real-time Memory Report at c_bands before calling an iterative solver
           375 MiB given to the printing process from OS
           295 MiB allocation reported by mallinfo(arena+hblkhd)
        966249 MiB available memory on the node where the printing process lives
------------------
     ethr =  9.56E-08,  avg # of iterations =  5.6

     total cpu time spent up to now is       48.8 secs

     total energy              =   -2923.81684933 Ry
     estimated scf accuracy    <       0.00003639 Ry

     iteration # 14     ecut=    50.00 Ry     beta= 0.40
     Davidson diagonalization with overlap

---- Real-time Memory Report at c_bands before calling an iterative solver
           375 MiB given to the printing process from OS
           295 MiB allocation reported by mallinfo(arena+hblkhd)
        966484 MiB available memory on the node where the printing process lives
------------------
     ethr =  2.17E-08,  avg # of iterations =  2.2

     total cpu time spent up to now is       51.5 secs

     total energy              =   -2923.81684636 Ry
     estimated scf accuracy    <       0.00001693 Ry

     iteration # 15     ecut=    50.00 Ry     beta= 0.40
     Davidson diagonalization with overlap

---- Real-time Memory Report at c_bands before calling an iterative solver
           375 MiB given to the printing process from OS
           295 MiB allocation reported by mallinfo(arena+hblkhd)
        966634 MiB available memory on the node where the printing process lives
------------------
     ethr =  1.01E-08,  avg # of iterations =  2.5

     total cpu time spent up to now is       54.3 secs

     total energy              =   -2923.81684892 Ry
     estimated scf accuracy    <       0.00000141 Ry

     iteration # 16     ecut=    50.00 Ry     beta= 0.40
     Davidson diagonalization with overlap

---- Real-time Memory Report at c_bands before calling an iterative solver
           375 MiB given to the printing process from OS
           295 MiB allocation reported by mallinfo(arena+hblkhd)
        966796 MiB available memory on the node where the printing process lives
------------------
     ethr =  8.40E-10,  avg # of iterations =  5.2

     total cpu time spent up to now is       58.2 secs

     total energy              =   -2923.81684977 Ry
     estimated scf accuracy    <       0.00000056 Ry

     iteration # 17     ecut=    50.00 Ry     beta= 0.40
     Davidson diagonalization with overlap

---- Real-time Memory Report at c_bands before calling an iterative solver
           375 MiB given to the printing process from OS
           295 MiB allocation reported by mallinfo(arena+hblkhd)
        967018 MiB available memory on the node where the printing process lives
------------------
     ethr =  3.36E-10,  avg # of iterations =  2.8

     total cpu time spent up to now is       60.8 secs

     total energy              =   -2923.81684978 Ry
     estimated scf accuracy    <       0.00000030 Ry

     iteration # 18     ecut=    50.00 Ry     beta= 0.40
     Davidson diagonalization with overlap

---- Real-time Memory Report at c_bands before calling an iterative solver
           375 MiB given to the printing process from OS
           295 MiB allocation reported by mallinfo(arena+hblkhd)
        967171 MiB available memory on the node where the printing process lives
------------------
     ethr =  1.80E-10,  avg # of iterations =  3.1

     total cpu time spent up to now is       63.7 secs

     total energy              =   -2923.81684978 Ry
     estimated scf accuracy    <       0.00000016 Ry

     iteration # 19     ecut=    50.00 Ry     beta= 0.40
     Davidson diagonalization with overlap

---- Real-time Memory Report at c_bands before calling an iterative solver
           375 MiB given to the printing process from OS
           295 MiB allocation reported by mallinfo(arena+hblkhd)
        967312 MiB available memory on the node where the printing process lives
------------------
     ethr =  9.29E-11,  avg # of iterations =  4.0

     total cpu time spent up to now is       66.7 secs

     total energy              =   -2923.81684980 Ry
     estimated scf accuracy    <       0.00000004 Ry

     iteration # 20     ecut=    50.00 Ry     beta= 0.40
     Davidson diagonalization with overlap

---- Real-time Memory Report at c_bands before calling an iterative solver
           375 MiB given to the printing process from OS
           295 MiB allocation reported by mallinfo(arena+hblkhd)
        967503 MiB available memory on the node where the printing process lives
------------------
     ethr =  2.58E-11,  avg # of iterations =  5.3

     total cpu time spent up to now is       70.1 secs

     total energy              =   -2923.81684981 Ry
     estimated scf accuracy    <          7.1E-09 Ry

     iteration # 21     ecut=    50.00 Ry     beta= 0.40
     Davidson diagonalization with overlap

---- Real-time Memory Report at c_bands before calling an iterative solver
           375 MiB given to the printing process from OS
           295 MiB allocation reported by mallinfo(arena+hblkhd)
        967721 MiB available memory on the node where the printing process lives
------------------
     ethr =  4.24E-12,  avg # of iterations =  5.7

     total cpu time spent up to now is       73.6 secs

     total energy              =   -2923.81684981 Ry
     estimated scf accuracy    <          1.6E-09 Ry

     iteration # 22     ecut=    50.00 Ry     beta= 0.40
     Davidson diagonalization with overlap

---- Real-time Memory Report at c_bands before calling an iterative solver
           375 MiB given to the printing process from OS
           295 MiB allocation reported by mallinfo(arena+hblkhd)
        967880 MiB available memory on the node where the printing process lives
------------------
     ethr =  9.35E-13,  avg # of iterations =  3.7

     total cpu time spent up to now is       76.8 secs

     End of self-consistent calculation

          k = 0.0000 0.0000 0.0000 ( 10085 PWs)   bands (ev):

   -49.0501 -49.0494 -49.0473 -49.0462 -23.3548 -23.3529 -23.3496 -23.3380
   -23.3313 -23.3275 -23.2777 -23.2754 -23.2692 -23.2623 -23.2561 -23.2531
   -21.9589 -21.9278 -21.9205 -21.9047  -7.0013  -6.7458  -6.2944  -6.2353
    -6.1545  -6.0483  -5.9589  -5.8330  -5.4629  -5.4500  -5.3844  -5.3516
    -4.2801  -4.1860  -4.0443  -4.0000  -3.9626  -3.9335  -3.9116  -3.9015
    -3.8855  -3.6069  -3.5101  -3.4798   5.1631   5.1901   5.2309   5.3134
     5.3211   5.4365   5.6245   6.2833   6.3003   6.3043   7.2127   7.2247
     7.6418   7.7050   7.7117   7.7241   7.7542   7.7574   7.7935   7.8329
     8.0609   8.6484   8.7415   8.8542   8.9744   9.0783   9.1223   9.3689
     9.4115   9.6575   9.6713   9.7080   9.8175   9.8931  10.0040  10.0798
    11.6646  11.6998  11.7664  11.7924  13.8318  13.9975  14.1768  14.2367
    14.5875  14.8898  15.0548  15.2273  15.5248  15.6292  15.7502  15.8455
    16.1113  16.2978  16.4465  17.0604  17.2379

     occupation numbers 
     1.0000   1.0000   1.0000   1.0000   1.0000   1.0000   1.0000   1.0000
     1.0000   1.0000   1.0000   1.0000   1.0000   1.0000   1.0000   1.0000
     1.0000   1.0000   1.0000   1.0000   1.0000   1.0000   1.0000   1.0000
     1.0000   1.0000   1.0000   1.0000   1.0000   1.0000   1.0000   1.0000
     1.0000   1.0000   1.0000   1.0000   1.0000   1.0000   1.0000   1.0000
     1.0000   1.0000   1.0000   1.0000   1.0000   1.0000   1.0000   1.0000
     1.0000   1.0000   1.0000   1.0000   1.0000   1.0000   1.0000   1.0000
     1.0000   1.0000   1.0000   1.0000   1.0000   1.0000   1.0000   1.0000
     1.0000   1.0000   1.0000   1.0000   1.0000   1.0000   1.0000   1.0000
     1.0000   1.0000   1.0000   1.0000   1.0000   1.0000   1.0000   1.0000
     1.0000   1.0000   1.0000   1.0000   0.0000   0.0000   0.0000   0.0000
     0.0000   0.0000   0.0000   0.0000   0.0000   0.0000   0.0000   0.0000
     0.0000   0.0000   0.0000   0.0000   0.0000

          k = 0.0000 0.0000 0.1414 ( 10050 PWs)   bands (ev):

   -49.0501 -49.0490 -49.0474 -49.0461 -23.3533 -23.3499 -23.3460 -23.3310
   -23.3308 -23.3278 -23.2775 -23.2774 -23.2761 -23.2691 -23.2558 -23.2532
   -21.9558 -21.9307 -21.9190 -21.9062  -6.9709  -6.7523  -6.2204  -6.2050
    -6.1480  -6.0669  -5.9518  -5.7882  -5.5377  -5.5007  -5.4520  -5.4096
    -4.2487  -4.1153  -3.9964  -3.9794  -3.9686  -3.9661  -3.9020  -3.8904
    -3.8693  -3.6529  -3.5454  -3.5263   5.1657   5.1875   5.3140   5.3292
     5.5161   5.5445   5.7874   6.2016   6.3561   6.3594   7.0580   7.0806
     7.5412   7.5883   7.6569   7.7433   7.7747   7.8509   7.8791   7.9339
     8.1681   8.2869   8.8316   8.9181   8.9395   8.9600   9.0102   9.3198
     9.3703   9.4260   9.5748   9.6300   9.7893   9.8466  10.0497  10.0825
    11.7083  11.7824  11.9619  12.0502  13.7045  13.9644  14.0592  14.2995
    14.7354  14.7755  15.0687  15.2105  15.5260  15.5893  15.9145  15.9640
    16.2749  16.4294  16.7717  17.2625  17.4171

     occupation numbers 
     1.0000   1.0000   1.0000   1.0000   1.0000   1.0000   1.0000   1.0000
     1.0000   1.0000   1.0000   1.0000   1.0000   1.0000   1.0000   1.0000
     1.0000   1.0000   1.0000   1.0000   1.0000   1.0000   1.0000   1.0000
     1.0000   1.0000   1.0000   1.0000   1.0000   1.0000   1.0000   1.0000
     1.0000   1.0000   1.0000   1.0000   1.0000   1.0000   1.0000   1.0000
     1.0000   1.0000   1.0000   1.0000   1.0000   1.0000   1.0000   1.0000
     1.0000   1.0000   1.0000   1.0000   1.0000   1.0000   1.0000   1.0000
     1.0000   1.0000   1.0000   1.0000   1.0000   1.0000   1.0000   1.0000
     1.0000   1.0000   1.0000   1.0000   1.0000   1.0000   1.0000   1.0000
     1.0000   1.0000   1.0000   1.0000   1.0000   1.0000   1.0000   1.0000
     1.0000   1.0000   1.0000   1.0000   0.0000   0.0000   0.0000   0.0000
     0.0000   0.0000   0.0000   0.0000   0.0000   0.0000   0.0000   0.0000
     0.0000   0.0000   0.0000   0.0000   0.0000

          k = 0.0000 0.0000 0.2828 ( 10046 PWs)   bands (ev):

   -49.0499 -49.0493 -49.0470 -49.0463 -23.3522 -23.3509 -23.3300 -23.3288
   -23.3252 -23.3121 -23.2990 -23.2895 -23.2766 -23.2752 -23.2550 -23.2540
   -21.9479 -21.9383 -21.9151 -21.9102  -6.8919  -6.8020  -6.1292  -6.1003
    -6.0944  -6.0204  -5.9731  -5.7599  -5.6798  -5.5712  -5.5691  -5.5405
    -4.1649  -4.0581  -3.9871  -3.9755  -3.9528  -3.9023  -3.8986  -3.8248
    -3.7794  -3.7631  -3.6546  -3.6391   5.1725   5.1808   5.3468   5.3575
     5.7263   5.9876   6.1494   6.4117   6.5079   6.5191   6.7715   6.8089
     6.9616   7.2810   7.6749   7.7111   7.7268   7.7270   8.1270   8.1627
     8.2307   8.4012   8.4879   8.5464   8.6909   8.7165   9.2745   9.3490
     9.4006   9.4674   9.4689   9.5375   9.5986   9.6661  10.0824  10.0871
    11.7296  11.7576  12.6054  12.6965  13.2650  13.4093  14.2389  14.4768
    14.5078  14.7004  15.1083  15.1647  15.5314  15.5478  16.3310  16.4463
    16.8025  16.8822  16.9586  17.1280  17.3659

     occupation numbers 
     1.0000   1.0000   1.0000   1.0000   1.0000   1.0000   1.0000   1.0000
     1.0000   1.0000   1.0000   1.0000   1.0000   1.0000   1.0000   1.0000
     1.0000   1.0000   1.0000   1.0000   1.0000   1.0000   1.0000   1.0000
     1.0000   1.0000   1.0000   1.0000   1.0000   1.0000   1.0000   1.0000
     1.0000   1.0000   1.0000   1.0000   1.0000   1.0000   1.0000   1.0000
     1.0000   1.0000   1.0000   1.0000   1.0000   1.0000   1.0000   1.0000
     1.0000   1.0000   1.0000   1.0000   1.0000   1.0000   1.0000   1.0000
     1.0000   1.0000   1.0000   1.0000   1.0000   1.0000   1.0000   1.0000
     1.0000   1.0000   1.0000   1.0000   1.0000   1.0000   1.0000   1.0000
     1.0000   1.0000   1.0000   1.0000   1.0000   1.0000   1.0000   1.0000
     1.0000   1.0000   1.0000   1.0000   1.0000   0.9463   0.0000   0.0000
     0.0000   0.0000   0.0000   0.0000   0.0000   0.0000   0.0000   0.0000
     0.0000   0.0000   0.0000   0.0000   0.0000

          k = 0.0000 0.2000 0.0000 ( 10076 PWs)   bands (ev):

   -49.0500 -49.0485 -49.0480 -49.0463 -23.3522 -23.3476 -23.3427 -23.3388
   -23.3243 -23.3204 -23.2867 -23.2824 -23.2685 -23.2634 -23.2633 -23.2600
   -21.9529 -21.9266 -21.9220 -21.9079  -6.8841  -6.7493  -6.4649  -6.1931
    -6.1206  -5.9884  -5.8597  -5.8273  -5.6665  -5.5122  -5.5094  -5.4259
    -4.1938  -4.1822  -3.9980  -3.9558  -3.9493  -3.9295  -3.8843  -3.7936
    -3.7861  -3.6436  -3.5475  -3.5067   5.3085   5.3193   5.4160   5.4421
     5.5299   5.6929   5.7928   6.2019   6.3474   6.4070   6.9040   7.2603
     7.2677   7.3219   7.4126   7.4478   7.6094   7.6221   7.7173   8.4625
     8.5011   8.5111   8.6858   8.7172   8.7439   8.8807   8.9753   9.1010
     9.1585   9.2544   9.4089   9.5089   9.8399   9.8897   9.9161   9.9445
    11.9537  12.0773  12.1714  12.3053  13.8915  13.9105  14.0166  14.2056
    14.5983  14.7618  14.9378  14.9400  15.8237  16.0344  16.0400  16.0477
    16.4125  16.4830  16.5624  17.3160  17.4982

     occupation numbers 
     1.0000   1.0000   1.0000   1.0000   1.0000   1.0000   1.0000   1.0000
     1.0000   1.0000   1.0000   1.0000   1.0000   1.0000   1.0000   1.0000
     1.0000   1.0000   1.0000   1.0000   1.0000   1.0000   1.0000   1.0000
     1.0000   1.0000   1.0000   1.0000   1.0000   1.0000   1.0000   1.0000
     1.0000   1.0000   1.0000   1.0000   1.0000   1.0000   1.0000   1.0000
     1.0000   1.0000   1.0000   1.0000   1.0000   1.0000   1.0000   1.0000
     1.0000   1.0000   1.0000   1.0000   1.0000   1.0000   1.0000   1.0000
     1.0000   1.0000   1.0000   1.0000   1.0000   1.0000   1.0000   1.0000
     1.0000   1.0000   1.0000   1.0000   1.0000   1.0000   1.0000   1.0000
     1.0000   1.0000   1.0000   1.0000   1.0000   1.0000   1.0000   1.0000
     1.0000   1.0000   1.0000   1.0000   0.0000   0.0000   0.0000   0.0000
     0.0000   0.0000   0.0000   0.0000   0.0000   0.0000   0.0000   0.0000
     0.0000   0.0000   0.0000   0.0000   0.0000

          k = 0.0000 0.2000 0.1414 ( 10060 PWs)   bands (ev):

   -49.0499 -49.0488 -49.0477 -49.0463 -23.3480 -23.3435 -23.3431 -23.3316
   -23.3239 -23.3207 -23.2864 -23.2830 -23.2766 -23.2702 -23.2631 -23.2604
   -21.9503 -21.9290 -21.9206 -21.9092  -6.8594  -6.7368  -6.3990  -6.1784
    -6.1125  -6.0141  -5.8221  -5.8129  -5.7475  -5.5671  -5.5265  -5.4744
    -4.1863  -4.1295  -3.9985  -3.9852  -3.9498  -3.9103  -3.8346  -3.7978
    -3.7792  -3.6831  -3.5727  -3.5345   5.4185   5.4396   5.4742   5.5396
     5.5554   5.7474   5.8467   6.2354   6.3965   6.4060   6.9710   7.1054
     7.1448   7.3372   7.3543   7.4731   7.5764   7.6076   7.6353   8.2776
     8.3979   8.4682   8.5371   8.6390   8.8964   8.9454   8.9916   9.0704
     9.1917   9.2023   9.3613   9.3807   9.8193   9.8538   9.9064   9.9433
    12.1353  12.2251  12.2835  12.2931  13.7695  13.9680  14.0000  14.0837
    14.6717  14.7728  14.7865  14.9172  16.0165  16.0353  16.0359  16.2125
    16.6046  16.6874  16.7530  17.5252  17.6363

     occupation numbers 
     1.0000   1.0000   1.0000   1.0000   1.0000   1.0000   1.0000   1.0000
     1.0000   1.0000   1.0000   1.0000   1.0000   1.0000   1.0000   1.0000
     1.0000   1.0000   1.0000   1.0000   1.0000   1.0000   1.0000   1.0000
     1.0000   1.0000   1.0000   1.0000   1.0000   1.0000   1.0000   1.0000
     1.0000   1.0000   1.0000   1.0000   1.0000   1.0000   1.0000   1.0000
     1.0000   1.0000   1.0000   1.0000   1.0000   1.0000   1.0000   1.0000
     1.0000   1.0000   1.0000   1.0000   1.0000   1.0000   1.0000   1.0000
     1.0000   1.0000   1.0000   1.0000   1.0000   1.0000   1.0000   1.0000
     1.0000   1.0000   1.0000   1.0000   1.0000   1.0000   1.0000   1.0000
     1.0000   1.0000   1.0000   1.0000   1.0000   1.0000   1.0000   1.0000
     1.0000   1.0000   1.0000   1.0000   0.0000   0.0000   0.0000   0.0000
     0.0000   0.0000   0.0000   0.0000   0.0000   0.0000   0.0000   0.0000
     0.0000   0.0000   0.0000   0.0000   0.0000

          k = 0.0000 0.2000 0.2828 ( 10071 PWs)   bands (ev):

   -49.0495 -49.0491 -49.0473 -49.0468 -23.3462 -23.3446 -23.3234 -23.3230
   -23.3217 -23.3131 -23.2979 -23.2906 -23.2847 -23.2827 -23.2622 -23.2612
   -21.9436 -21.9355 -21.9171 -21.9128  -6.7985  -6.7429  -6.2305  -6.1219
    -6.0894  -6.0548  -5.9092  -5.8736  -5.7113  -5.6283  -5.5871  -5.5810
    -4.1466  -4.0678  -4.0352  -4.0033  -3.9061  -3.8673  -3.8281  -3.7882
    -3.7269  -3.7236  -3.6404  -3.6140   5.4250   5.4330   5.5743   5.5905
     5.8965   6.0613   6.1500   6.3693   6.5777   6.5966   6.7839   6.8441
     6.9034   7.1145   7.3855   7.4551   7.4697   7.5624   7.6820   7.7591
     8.0606   8.0719   8.5637   8.6514   8.8890   9.0360   9.1254   9.1803
     9.2131   9.2570   9.3000   9.4301   9.6282   9.6951   9.9269   9.9390
    12.2123  12.2590  12.7357  12.8117  13.3481  13.4585  14.1637  14.2781
    14.4631  14.5427  14.8100  14.8668  16.0345  16.0357  16.6031  16.6737
    17.0371  17.0757  17.1809  17.2956  17.4540

     occupation numbers 
     1.0000   1.0000   1.0000   1.0000   1.0000   1.0000   1.0000   1.0000
     1.0000   1.0000   1.0000   1.0000   1.0000   1.0000   1.0000   1.0000
     1.0000   1.0000   1.0000   1.0000   1.0000   1.0000   1.0000   1.0000
     1.0000   1.0000   1.0000   1.0000   1.0000   1.0000   1.0000   1.0000
     1.0000   1.0000   1.0000   1.0000   1.0000   1.0000   1.0000   1.0000
     1.0000   1.0000   1.0000   1.0000   1.0000   1.0000   1.0000   1.0000
     1.0000   1.0000   1.0000   1.0000   1.0000   1.0000   1.0000   1.0000
     1.0000   1.0000   1.0000   1.0000   1.0000   1.0000   1.0000   1.0000
     1.0000   1.0000   1.0000   1.0000   1.0000   1.0000   1.0000   1.0000
     1.0000   1.0000   1.0000   1.0000   1.0000   1.0000   1.0000   1.0000
     1.0000   1.0000   1.0000   1.0000   0.9972   0.6133   0.0000   0.0000
     0.0000   0.0000   0.0000   0.0000   0.0000   0.0000   0.0000   0.0000
     0.0000   0.0000   0.0000   0.0000   0.0000

          k = 0.0000 0.4000 0.0000 ( 10072 PWs)   bands (ev):

   -49.0492 -49.0486 -49.0478 -49.0471 -23.3468 -23.3418 -23.3315 -23.3245
   -23.3083 -23.3056 -23.3019 -23.3014 -23.2823 -23.2787 -23.2668 -23.2649
   -21.9395 -21.9278 -21.9224 -21.9153  -6.7452  -6.6614  -6.5590  -6.1061
    -6.0344  -6.0344  -5.9343  -5.8258  -5.7976  -5.6754  -5.6119  -5.6117
    -4.1496  -4.0780  -4.0681  -3.9930  -3.8537  -3.7885  -3.7373  -3.7251
    -3.6521  -3.6356  -3.6328  -3.5725   5.3330   5.3442   6.0295   6.0790
     6.0963   6.1279   6.2946   6.3212   6.4502   6.4993   6.7606   6.8069
     6.8614   6.8979   6.9851   7.0172   7.3452   7.4726   7.6278   7.6465
     7.9083   8.1542   8.4696   8.6855   8.7430   8.8934   8.9382   9.1066
     9.1866   9.2514   9.3022   9.3978   9.4940   9.6449   9.6499   9.8095
    12.6274  12.7739  13.0712  13.2497  13.4453  13.4719  13.9306  14.1913
    14.2338  14.3524  14.4277  14.6636  15.9949  16.2583  16.7109  17.2651
    17.2976  17.3412  17.3838  17.4562  17.8994

     occupation numbers 
     1.0000   1.0000   1.0000   1.0000   1.0000   1.0000   1.0000   1.0000
     1.0000   1.0000   1.0000   1.0000   1.0000   1.0000   1.0000   1.0000
     1.0000   1.0000   1.0000   1.0000   1.0000   1.0000   1.0000   1.0000
     1.0000   1.0000   1.0000   1.0000   1.0000   1.0000   1.0000   1.0000
     1.0000   1.0000   1.0000   1.0000   1.0000   1.0000   1.0000   1.0000
     1.0000   1.0000   1.0000   1.0000   1.0000   1.0000   1.0000   1.0000
     1.0000   1.0000   1.0000   1.0000   1.0000   1.0000   1.0000   1.0000
     1.0000   1.0000   1.0000   1.0000   1.0000   1.0000   1.0000   1.0000
     1.0000   1.0000   1.0000   1.0000   1.0000   1.0000   1.0000   1.0000
     1.0000   1.0000   1.0000   1.0000   1.0000   1.0000   1.0000   1.0000
     1.0000   1.0000   1.0000   1.0000   0.7518   0.4505   0.0000   0.0000
     0.0000   0.0000   0.0000   0.0000   0.0000   0.0000   0.0000   0.0000
     0.0000   0.0000   0.0000   0.0000   0.0000

          k = 0.0000 0.4000 0.1414 ( 10078 PWs)   bands (ev):

   -49.0492 -49.0483 -49.0482 -49.0471 -23.3397 -23.3346 -23.3305 -23.3251
   -23.3076 -23.3052 -23.3022 -23.3021 -23.2820 -23.2792 -23.2745 -23.2722
   -21.9379 -21.9266 -21.9241 -21.9165  -6.7009  -6.6035  -6.5498  -6.1453
    -6.0303  -6.0231  -5.9374  -5.8163  -5.8064  -5.7206  -5.6452  -5.6393
    -4.1217  -4.0746  -4.0683  -4.0190  -3.8581  -3.8220  -3.7604  -3.7152
    -3.6784  -3.6203  -3.5985  -3.5652   5.5618   5.5755   6.0342   6.0574
     6.0991   6.1240   6.3489   6.4341   6.4730   6.5662   6.7102   6.8237
     6.8613   6.9518   6.9842   7.0344   7.1916   7.4256   7.4436   7.4937
     7.8113   7.8991   8.3121   8.4733   8.8505   8.8942   9.0916   9.1030
     9.1663   9.3043   9.3245   9.4331   9.5119   9.6410   9.6653   9.7836
    12.7563  12.8781  13.0950  13.2547  13.5017  13.5387  13.9226  14.1226
    14.1549  14.2079  14.3888  14.4888  16.3011  16.6016  16.8288  17.2988
    17.3050  17.3328  17.4347  17.5133  17.9242

     occupation numbers 
     1.0000   1.0000   1.0000   1.0000   1.0000   1.0000   1.0000   1.0000
     1.0000   1.0000   1.0000   1.0000   1.0000   1.0000   1.0000   1.0000
     1.0000   1.0000   1.0000   1.0000   1.0000   1.0000   1.0000   1.0000
     1.0000   1.0000   1.0000   1.0000   1.0000   1.0000   1.0000   1.0000
     1.0000   1.0000   1.0000   1.0000   1.0000   1.0000   1.0000   1.0000
     1.0000   1.0000   1.0000   1.0000   1.0000   1.0000   1.0000   1.0000
     1.0000   1.0000   1.0000   1.0000   1.0000   1.0000   1.0000   1.0000
     1.0000   1.0000   1.0000   1.0000   1.0000   1.0000   1.0000   1.0000
     1.0000   1.0000   1.0000   1.0000   1.0000   1.0000   1.0000   1.0000
     1.0000   1.0000   1.0000   1.0000   1.0000   1.0000   1.0000   1.0000
     1.0000   1.0000   1.0000   1.0000   0.1599   0.0303   0.0000   0.0000
     0.0000   0.0000   0.0000   0.0000   0.0000   0.0000   0.0000   0.0000
     0.0000   0.0000   0.0000   0.0000   0.0000

          k = 0.0000 0.4000 0.2828 ( 10090 PWs)   bands (ev):

   -49.0490 -49.0485 -49.0481 -49.0474 -23.3298 -23.3272 -23.3192 -23.3159
   -23.3057 -23.3043 -23.3040 -23.3031 -23.2943 -23.2912 -23.2812 -23.2800
   -21.9336 -21.9283 -21.9235 -21.9196  -6.6080  -6.5548  -6.4439  -6.2669
    -5.9992  -5.9935  -5.9584  -5.9002  -5.7745  -5.7416  -5.7056  -5.7052
    -4.0814  -4.0689  -4.0631  -4.0525  -3.8560  -3.8343  -3.8152  -3.7915
    -3.6200  -3.5903  -3.5879  -3.5649   6.0325   6.0338   6.1062   6.1154
     6.1236   6.1386   6.4909   6.5380   6.5433   6.7433   6.7578   6.7710
     6.8421   6.9326   6.9827   6.9983   7.0821   7.1586   7.1828   7.4810
     7.4934   7.5234   7.7271   7.8590   9.0365   9.1052   9.1146   9.1691
     9.3491   9.3935   9.4256   9.5205   9.5486   9.5781   9.6256   9.6985
    13.1050  13.1873  13.1993  13.2134  13.6219  13.6777  13.7628  13.7751
    14.0857  14.1086  14.1240  14.1483  17.0166  17.2317  17.3028  17.3162
    17.3186  17.3948  17.4732  17.6471  17.8472

     occupation numbers 
     1.0000   1.0000   1.0000   1.0000   1.0000   1.0000   1.0000   1.0000
     1.0000   1.0000   1.0000   1.0000   1.0000   1.0000   1.0000   1.0000
     1.0000   1.0000   1.0000   1.0000   1.0000   1.0000   1.0000   1.0000
     1.0000   1.0000   1.0000   1.0000   1.0000   1.0000   1.0000   1.0000
     1.0000   1.0000   1.0000   1.0000   1.0000   1.0000   1.0000   1.0000
     1.0000   1.0000   1.0000   1.0000   1.0000   1.0000   1.0000   1.0000
     1.0000   1.0000   1.0000   1.0000   1.0000   1.0000   1.0000   1.0000
     1.0000   1.0000   1.0000   1.0000   1.0000   1.0000   1.0000   1.0000
     1.0000   1.0000   1.0000   1.0000   1.0000   1.0000   1.0000   1.0000
     1.0000   1.0000   1.0000   1.0000   1.0000   1.0000   1.0000   1.0000
     1.0000   1.0000   1.0000   1.0000   0.0005   0.0000   0.0000   0.0000
     0.0000   0.0000   0.0000   0.0000   0.0000   0.0000   0.0000   0.0000
     0.0000   0.0000   0.0000   0.0000   0.0000

          k = 0.2000 0.2000 0.0000 ( 10069 PWs)   bands (ev):

   -49.0499 -49.0485 -49.0481 -49.0463 -23.3516 -23.3485 -23.3436 -23.3394
   -23.3121 -23.3079 -23.3009 -23.2951 -23.2681 -23.2640 -23.2625 -23.2589
   -21.9477 -21.9257 -21.9228 -21.9106  -6.7975  -6.7852  -6.5882  -6.1706
    -6.0238  -5.9482  -5.9009  -5.7570  -5.7472  -5.5852  -5.5803  -5.5707
    -4.0851  -4.0834  -4.0012  -3.9471  -3.9464  -3.8781  -3.8151  -3.7630
    -3.7330  -3.6847  -3.5798  -3.5007   5.2118   5.2361   5.3208   5.4322
     5.8613   5.9999   6.1719   6.3496   6.4036   6.5005   6.5236   6.9490
     7.0049   7.3376   7.3881   7.5331   7.5570   7.6944   7.7048   8.1973
     8.4389   8.4951   8.5105   8.6996   8.7151   8.7768   8.7999   8.8551
     8.9735   9.3277   9.5196   9.5382   9.6672   9.6897   9.7541   9.9461
    11.7519  12.6384  12.6689  12.7288  13.4738  13.9313  14.1348  14.2489
    14.4669  14.6283  14.7901  14.8393  15.7503  16.1562  16.2488  16.3536
    16.4328  16.6944  17.1623  17.3587  17.8851

     occupation numbers 
     1.0000   1.0000   1.0000   1.0000   1.0000   1.0000   1.0000   1.0000
     1.0000   1.0000   1.0000   1.0000   1.0000   1.0000   1.0000   1.0000
     1.0000   1.0000   1.0000   1.0000   1.0000   1.0000   1.0000   1.0000
     1.0000   1.0000   1.0000   1.0000   1.0000   1.0000   1.0000   1.0000
     1.0000   1.0000   1.0000   1.0000   1.0000   1.0000   1.0000   1.0000
     1.0000   1.0000   1.0000   1.0000   1.0000   1.0000   1.0000   1.0000
     1.0000   1.0000   1.0000   1.0000   1.0000   1.0000   1.0000   1.0000
     1.0000   1.0000   1.0000   1.0000   1.0000   1.0000   1.0000   1.0000
     1.0000   1.0000   1.0000   1.0000   1.0000   1.0000   1.0000   1.0000
     1.0000   1.0000   1.0000   1.0000   1.0000   1.0000   1.0000   1.0000
     1.0000   1.0000   1.0000   1.0000   0.4285   0.0000   0.0000   0.0000
     0.0000   0.0000   0.0000   0.0000   0.0000   0.0000   0.0000   0.0000
     0.0000   0.0000   0.0000   0.0000   0.0000

          k = 0.2000 0.2000 0.1414 ( 10067 PWs)   bands (ev):

   -49.0497 -49.0485 -49.0481 -49.0465 -23.3499 -23.3443 -23.3419 -23.3322
   -23.3117 -23.3083 -23.3003 -23.2956 -23.2759 -23.2712 -23.2621 -23.2593
   -21.9455 -21.9277 -21.9216 -21.9117  -6.7702  -6.7687  -6.5250  -6.1601
    -6.0305  -5.9720  -5.8677  -5.8509  -5.7437  -5.6283  -5.5833  -5.5784
    -4.1406  -4.0264  -3.9902  -3.9547  -3.9512  -3.8481  -3.7927  -3.7746
    -3.7299  -3.6899  -3.5999  -3.5343   5.2390   5.2455   5.5507   5.6326
     5.9060   6.0396   6.1792   6.3190   6.4780   6.4932   6.6278   6.9271
     7.0278   7.1242   7.2460   7.4658   7.4981   7.6699   7.6839   8.1201
     8.2059   8.3687   8.3789   8.6997   8.7627   8.8062   8.9385   9.0269
     9.0561   9.2658   9.3679   9.3935   9.6529   9.6977   9.7521   9.8950
    12.0338  12.6529  12.7187  12.7733  13.5626  13.8105  14.0613  14.1840
    14.4871  14.6351  14.7366  14.7723  15.8079  16.1400  16.4234  16.5867
    16.6956  16.8058  17.2104  17.5604  17.9766

     occupation numbers 
     1.0000   1.0000   1.0000   1.0000   1.0000   1.0000   1.0000   1.0000
     1.0000   1.0000   1.0000   1.0000   1.0000   1.0000   1.0000   1.0000
     1.0000   1.0000   1.0000   1.0000   1.0000   1.0000   1.0000   1.0000
     1.0000   1.0000   1.0000   1.0000   1.0000   1.0000   1.0000   1.0000
     1.0000   1.0000   1.0000   1.0000   1.0000   1.0000   1.0000   1.0000
     1.0000   1.0000   1.0000   1.0000   1.0000   1.0000   1.0000   1.0000
     1.0000   1.0000   1.0000   1.0000   1.0000   1.0000   1.0000   1.0000
     1.0000   1.0000   1.0000   1.0000   1.0000   1.0000   1.0000   1.0000
     1.0000   1.0000   1.0000   1.0000   1.0000   1.0000   1.0000   1.0000
     1.0000   1.0000   1.0000   1.0000   1.0000   1.0000   1.0000   1.0000
     1.0000   1.0000   1.0000   1.0000   0.0095   0.0000   0.0000   0.0000
     0.0000   0.0000   0.0000   0.0000   0.0000   0.0000   0.0000   0.0000
     0.0000   0.0000   0.0000   0.0000   0.0000

          k = 0.2000 0.2000 0.2828 ( 10073 PWs)   bands (ev):

   -49.0492 -49.0489 -49.0475 -49.0471 -23.3480 -23.3460 -23.3221 -23.3139
   -23.3106 -23.3095 -23.2998 -23.2975 -23.2953 -23.2895 -23.2612 -23.2602
   -21.9399 -21.9332 -21.9186 -21.9148  -6.7353  -6.7296  -6.3605  -6.1859
    -6.0055  -6.0014  -5.9870  -5.8897  -5.7314  -5.6438  -5.6404  -5.6093
    -4.1386  -4.0756  -3.9904  -3.9656  -3.8710  -3.8088  -3.7823  -3.7225
    -3.7198  -3.7072  -3.6519  -3.6198   5.2463   5.2533   6.0058   6.0830
     6.1356   6.1483   6.1959   6.3835   6.4992   6.7058   6.7748   6.7998
     6.8898   6.9081   6.9823   7.1573   7.4101   7.5592   7.6355   7.6427
     7.8933   8.1599   8.3747   8.5682   8.8288   8.9061   9.0232   9.1681
     9.1946   9.2812   9.3364   9.4520   9.5070   9.6350   9.7504   9.7753
    12.5854  12.6882  12.7629  13.1090  13.3624  13.6057  13.8323  14.2066
    14.3344  14.5583  14.6676  14.7228  15.9685  16.0835  16.8964  17.1242
    17.1499  17.3744  17.4437  17.5466  17.6526

     occupation numbers 
     1.0000   1.0000   1.0000   1.0000   1.0000   1.0000   1.0000   1.0000
     1.0000   1.0000   1.0000   1.0000   1.0000   1.0000   1.0000   1.0000
     1.0000   1.0000   1.0000   1.0000   1.0000   1.0000   1.0000   1.0000
     1.0000   1.0000   1.0000   1.0000   1.0000   1.0000   1.0000   1.0000
     1.0000   1.0000   1.0000   1.0000   1.0000   1.0000   1.0000   1.0000
     1.0000   1.0000   1.0000   1.0000   1.0000   1.0000   1.0000   1.0000
     1.0000   1.0000   1.0000   1.0000   1.0000   1.0000   1.0000   1.0000
     1.0000   1.0000   1.0000   1.0000   1.0000   1.0000   1.0000   1.0000
     1.0000   1.0000   1.0000   1.0000   1.0000   1.0000   1.0000   1.0000
     1.0000   1.0000   1.0000   1.0000   1.0000   1.0000   1.0000   1.0000
     1.0000   1.0000   1.0000   1.0000   0.9943   0.0012   0.0000   0.0000
     0.0000   0.0000   0.0000   0.0000   0.0000   0.0000   0.0000   0.0000
     0.0000   0.0000   0.0000   0.0000   0.0000

          k = 0.2000 0.4000 0.0000 ( 10091 PWs)   bands (ev):

   -49.0493 -49.0485 -49.0481 -49.0472 -23.3477 -23.3430 -23.3419 -23.3363
   -23.3262 -23.3179 -23.2889 -23.2856 -23.2699 -23.2674 -23.2667 -23.2645
   -21.9363 -21.9268 -21.9227 -21.9169  -6.8616  -6.7939  -6.5180  -6.1369
    -6.0676  -5.9485  -5.8962  -5.8251  -5.7832  -5.6804  -5.6207  -5.6103
    -4.0668  -4.0176  -4.0072  -3.9765  -3.9283  -3.8145  -3.7627  -3.6496
    -3.6273  -3.6016  -3.5880  -3.5064   5.3118   5.3295   5.4793   5.5728
     5.8024   5.9175   6.1221   6.1964   6.4567   6.7675   6.7794   7.0008
     7.1389   7.1813   7.2824   7.2927   7.4719   7.6378   7.6737   7.7037
     8.0373   8.3482   8.3617   8.4335   8.6907   8.8603   8.9158   8.9479
     9.0121   9.2018   9.2564   9.3429   9.3534   9.3822   9.7582   9.9536
    12.0774  12.7649  13.3797  13.3888  13.5147  13.9528  13.9677  14.2181
    14.2845  14.3165  14.4870  14.7090  15.8421  16.1407  16.7851  16.8617
    17.1418  17.3750  17.4855  17.5272  17.9672

     occupation numbers 
     1.0000   1.0000   1.0000   1.0000   1.0000   1.0000   1.0000   1.0000
     1.0000   1.0000   1.0000   1.0000   1.0000   1.0000   1.0000   1.0000
     1.0000   1.0000   1.0000   1.0000   1.0000   1.0000   1.0000   1.0000
     1.0000   1.0000   1.0000   1.0000   1.0000   1.0000   1.0000   1.0000
     1.0000   1.0000   1.0000   1.0000   1.0000   1.0000   1.0000   1.0000
     1.0000   1.0000   1.0000   1.0000   1.0000   1.0000   1.0000   1.0000
     1.0000   1.0000   1.0000   1.0000   1.0000   1.0000   1.0000   1.0000
     1.0000   1.0000   1.0000   1.0000   1.0000   1.0000   1.0000   1.0000
     1.0000   1.0000   1.0000   1.0000   1.0000   1.0000   1.0000   1.0000
     1.0000   1.0000   1.0000   1.0000   1.0000   1.0000   1.0000   1.0000
     1.0000   1.0000   0.9869   0.9797   0.0916   0.0000   0.0000   0.0000
     0.0000   0.0000   0.0000   0.0000   0.0000   0.0000   0.0000   0.0000
     0.0000   0.0000   0.0000   0.0000   0.0000

          k = 0.2000 0.4000 0.1414 ( 10093 PWs)   bands (ev):

   -49.0491 -49.0486 -49.0480 -49.0473 -23.3452 -23.3374 -23.3373 -23.3348
   -23.3251 -23.3186 -23.2887 -23.2860 -23.2742 -23.2727 -23.2696 -23.2669
   -21.9350 -21.9259 -21.9239 -21.9178  -6.8137  -6.7356  -6.5298  -6.2091
    -6.0471  -5.9203  -5.8910  -5.8727  -5.7762  -5.6772  -5.6427  -5.6375
    -4.0719  -4.0179  -3.9977  -3.9924  -3.9398  -3.8192  -3.7487  -3.6711
    -3.6189  -3.5884  -3.5858  -3.5218   5.4554   5.4814   5.5576   5.6492
     5.8990   5.9880   6.1200   6.2367   6.4450   6.7435   6.8364   6.9975
     7.1246   7.1376   7.1966   7.3116   7.3295   7.4503   7.4867   7.6839
     7.7555   8.2719   8.4566   8.6204   8.7481   8.7705   8.9646   8.9721
     9.0174   9.1186   9.1551   9.3144   9.3435   9.4249   9.7502   9.9114
    12.2950  12.9003  13.4000  13.4306  13.5071  13.8679  14.0021  14.1809
    14.1968  14.2981  14.3527  14.6205  16.0267  16.4472  16.7602  16.9833
    17.2445  17.4375  17.5702  17.5946  17.9314

     occupation numbers 
     1.0000   1.0000   1.0000   1.0000   1.0000   1.0000   1.0000   1.0000
     1.0000   1.0000   1.0000   1.0000   1.0000   1.0000   1.0000   1.0000
     1.0000   1.0000   1.0000   1.0000   1.0000   1.0000   1.0000   1.0000
     1.0000   1.0000   1.0000   1.0000   1.0000   1.0000   1.0000   1.0000
     1.0000   1.0000   1.0000   1.0000   1.0000   1.0000   1.0000   1.0000
     1.0000   1.0000   1.0000   1.0000   1.0000   1.0000   1.0000   1.0000
     1.0000   1.0000   1.0000   1.0000   1.0000   1.0000   1.0000   1.0000
     1.0000   1.0000   1.0000   1.0000   1.0000   1.0000   1.0000   1.0000
     1.0000   1.0000   1.0000   1.0000   1.0000   1.0000   1.0000   1.0000
     1.0000   1.0000   1.0000   1.0000   1.0000   1.0000   1.0000   1.0000
     1.0000   1.0000   0.9653   0.8615   0.1276   0.0000   0.0000   0.0000
     0.0000   0.0000   0.0000   0.0000   0.0000   0.0000   0.0000   0.0000
     0.0000   0.0000   0.0000   0.0000   0.0000

          k = 0.2000 0.4000 0.2828 ( 10093 PWs)   bands (ev):

   -49.0489 -49.0483 -49.0482 -49.0476 -23.3424 -23.3395 -23.3244 -23.3221
   -23.3172 -23.3146 -23.2941 -23.2917 -23.2878 -23.2866 -23.2689 -23.2678
   -21.9315 -21.9273 -21.9234 -21.9203  -6.6980  -6.5856  -6.5801  -6.3815
    -5.9966  -5.9390  -5.8722  -5.8464  -5.8140  -5.7339  -5.6665  -5.6569
    -4.0743  -4.0575  -3.9860  -3.9743  -3.9328  -3.8679  -3.7192  -3.6921
    -3.5994  -3.5846  -3.5753  -3.5528   5.4868   5.4925   6.0463   6.0697
     6.1102   6.1213   6.3084   6.3378   6.5112   6.6442   6.7727   6.8615
     6.9546   6.9857   7.0207   7.1700   7.2337   7.3104   7.4244   7.4346
     7.6523   7.8323   8.2185   8.3206   8.8391   8.9230   8.9652   9.0446
     9.2043   9.2448   9.2457   9.3180   9.4194   9.4469   9.6723   9.7396
    12.8296  13.2573  13.4073  13.4210  13.5594  13.6247  13.8241  13.9624
    14.1385  14.2234  14.2568  14.3864  16.4268  16.6631  17.1363  17.3311
    17.4663  17.6582  17.6618  17.7696  17.8999

     occupation numbers 
     1.0000   1.0000   1.0000   1.0000   1.0000   1.0000   1.0000   1.0000
     1.0000   1.0000   1.0000   1.0000   1.0000   1.0000   1.0000   1.0000
     1.0000   1.0000   1.0000   1.0000   1.0000   1.0000   1.0000   1.0000
     1.0000   1.0000   1.0000   1.0000   1.0000   1.0000   1.0000   1.0000
     1.0000   1.0000   1.0000   1.0000   1.0000   1.0000   1.0000   1.0000
     1.0000   1.0000   1.0000   1.0000   1.0000   1.0000   1.0000   1.0000
     1.0000   1.0000   1.0000   1.0000   1.0000   1.0000   1.0000   1.0000
     1.0000   1.0000   1.0000   1.0000   1.0000   1.0000   1.0000   1.0000
     1.0000   1.0000   1.0000   1.0000   1.0000   1.0000   1.0000   1.0000
     1.0000   1.0000   1.0000   1.0000   1.0000   1.0000   1.0000   1.0000
     1.0000   1.0000   0.9512   0.9089   0.0112   0.0005   0.0000   0.0000
     0.0000   0.0000   0.0000   0.0000   0.0000   0.0000   0.0000   0.0000
     0.0000   0.0000   0.0000   0.0000   0.0000

          k = 0.4000 0.4000 0.0000 ( 10083 PWs)   bands (ev):

   -49.0491 -49.0487 -49.0478 -49.0474 -23.3553 -23.3488 -23.3437 -23.3425
   -23.3404 -23.3368 -23.2698 -23.2676 -23.2659 -23.2652 -23.2626 -23.2592
   -21.9300 -21.9264 -21.9223 -21.9201  -6.9893  -6.9639  -6.4020  -6.2475
    -6.0568  -6.0091  -5.8780  -5.8616  -5.8164  -5.7773  -5.4766  -5.4560
    -3.9793  -3.9606  -3.9534  -3.9426  -3.9324  -3.9157  -3.6954  -3.6529
    -3.5458  -3.5435  -3.4731  -3.4394   5.2042   5.2449   5.3014   5.4132
     5.4893   5.5316   5.5581   5.5636   6.9965   7.0018   7.0975   7.1866
     7.3315   7.5398   7.5973   7.6203   7.6205   7.6286   7.8016   7.8184
     7.9461   8.1541   8.2611   8.3250   8.4891   8.6736   8.7020   8.8252
     8.8970   8.9836   9.1911   9.2759   9.4417   9.4470   9.9653  10.0108
    11.8221  12.1274  13.8452  13.8592  13.8947  13.9418  14.1326  14.2197
    14.2256  14.3581  14.6827  14.6930  15.7060  15.8300  16.4595  16.8300
    17.1730  17.4713  17.5101  17.6432  17.8358

     occupation numbers 
     1.0000   1.0000   1.0000   1.0000   1.0000   1.0000   1.0000   1.0000
     1.0000   1.0000   1.0000   1.0000   1.0000   1.0000   1.0000   1.0000
     1.0000   1.0000   1.0000   1.0000   1.0000   1.0000   1.0000   1.0000
     1.0000   1.0000   1.0000   1.0000   1.0000   1.0000   1.0000   1.0000
     1.0000   1.0000   1.0000   1.0000   1.0000   1.0000   1.0000   1.0000
     1.0000   1.0000   1.0000   1.0000   1.0000   1.0000   1.0000   1.0000
     1.0000   1.0000   1.0000   1.0000   1.0000   1.0000   1.0000   1.0000
     1.0000   1.0000   1.0000   1.0000   1.0000   1.0000   1.0000   1.0000
     1.0000   1.0000   1.0000   1.0000   1.0000   1.0000   1.0000   1.0000
     1.0000   1.0000   1.0000   1.0000   1.0000   1.0000   1.0000   1.0000
     1.0000   1.0000   0.0000   0.0000   0.0000   0.0000   0.0000   0.0000
     0.0000   0.0000   0.0000   0.0000   0.0000   0.0000   0.0000   0.0000
     0.0000   0.0000   0.0000   0.0000   0.0000

          k = 0.4000 0.4000 0.1414 ( 10091 PWs)   bands (ev):

   -49.0489 -49.0485 -49.0480 -49.0476 -23.3540 -23.3472 -23.3448 -23.3381
   -23.3353 -23.3339 -23.2738 -23.2730 -23.2695 -23.2668 -23.2623 -23.2597
   -21.9292 -21.9258 -21.9230 -21.9207  -6.9351  -6.9063  -6.4601  -6.3429
    -6.0306  -5.9790  -5.8905  -5.8594  -5.7789  -5.7512  -5.5197  -5.4910
    -3.9868  -3.9757  -3.9557  -3.9337  -3.9301  -3.8681  -3.7054  -3.6809
    -3.5461  -3.5426  -3.4833  -3.4559   5.2392   5.2461   5.4504   5.4906
     5.6035   5.6180   5.6323   5.7189   6.8731   6.9923   7.1328   7.1668
     7.1776   7.3081   7.3825   7.4486   7.5719   7.5755   7.5889   7.7604
     8.1579   8.2565   8.4727   8.5889   8.6546   8.6970   8.7047   8.8492
     8.8556   8.9431   9.0024   9.2108   9.2119   9.2944   9.9230   9.9568
    12.1019  12.3497  13.8000  13.8219  13.8819  13.9071  14.0832  14.2093
    14.2407  14.3544  14.6089  14.6516  15.8069  16.0145  16.4301  16.8125
    17.3137  17.5735  17.6387  17.7640  17.9133

     occupation numbers 
     1.0000   1.0000   1.0000   1.0000   1.0000   1.0000   1.0000   1.0000
     1.0000   1.0000   1.0000   1.0000   1.0000   1.0000   1.0000   1.0000
     1.0000   1.0000   1.0000   1.0000   1.0000   1.0000   1.0000   1.0000
     1.0000   1.0000   1.0000   1.0000   1.0000   1.0000   1.0000   1.0000
     1.0000   1.0000   1.0000   1.0000   1.0000   1.0000   1.0000   1.0000
     1.0000   1.0000   1.0000   1.0000   1.0000   1.0000   1.0000   1.0000
     1.0000   1.0000   1.0000   1.0000   1.0000   1.0000   1.0000   1.0000
     1.0000   1.0000   1.0000   1.0000   1.0000   1.0000   1.0000   1.0000
     1.0000   1.0000   1.0000   1.0000   1.0000   1.0000   1.0000   1.0000
     1.0000   1.0000   1.0000   1.0000   1.0000   1.0000   1.0000   1.0000
     1.0000   1.0000   0.0000   0.0000   0.0000   0.0000   0.0000   0.0000
     0.0000   0.0000   0.0000   0.0000   0.0000   0.0000   0.0000   0.0000
     0.0000   0.0000   0.0000   0.0000   0.0000

          k = 0.4000 0.4000 0.2828 ( 10112 PWs)   bands (ev):

   -49.0485 -49.0484 -49.0483 -49.0481 -23.3511 -23.3477 -23.3441 -23.3407
   -23.3166 -23.3154 -23.2929 -23.2921 -23.2688 -23.2678 -23.2614 -23.2605
   -21.9273 -21.9249 -21.9242 -21.9223  -6.7918  -6.7508  -6.6105  -6.5419
    -5.9727  -5.9288  -5.9024  -5.8606  -5.7251  -5.6842  -5.6175  -5.5764
    -3.9986  -3.9818  -3.9610  -3.9455  -3.8650  -3.8227  -3.7366  -3.7316
    -3.5331  -3.5330  -3.5076  -3.4947   5.2491   5.2507   5.4918   5.4924
     5.9263   5.9719   6.2394   6.2603   6.3932   6.4860   7.0020   7.0355
     7.0836   7.1210   7.2534   7.3232   7.4581   7.4988   7.5045   7.6477
     8.2262   8.3580   8.3691   8.5255   8.6132   8.6847   8.7992   8.8191
     8.9128   8.9641   9.0342   9.0719   9.3291   9.3664   9.7424   9.7434
    12.7261  12.8874  13.3846  13.4776  13.9310  13.9721  13.9831  14.1368
    14.3166  14.3577  14.4352  14.4923  16.1003  16.3261  16.4424  16.7211
    17.6810  17.8451  17.9547  18.0682  18.1032

     occupation numbers 
     1.0000   1.0000   1.0000   1.0000   1.0000   1.0000   1.0000   1.0000
     1.0000   1.0000   1.0000   1.0000   1.0000   1.0000   1.0000   1.0000
     1.0000   1.0000   1.0000   1.0000   1.0000   1.0000   1.0000   1.0000
     1.0000   1.0000   1.0000   1.0000   1.0000   1.0000   1.0000   1.0000
     1.0000   1.0000   1.0000   1.0000   1.0000   1.0000   1.0000   1.0000
     1.0000   1.0000   1.0000   1.0000   1.0000   1.0000   1.0000   1.0000
     1.0000   1.0000   1.0000   1.0000   1.0000   1.0000   1.0000   1.0000
     1.0000   1.0000   1.0000   1.0000   1.0000   1.0000   1.0000   1.0000
     1.0000   1.0000   1.0000   1.0000   1.0000   1.0000   1.0000   1.0000
     1.0000   1.0000   1.0000   1.0000   1.0000   1.0000   1.0000   1.0000
     1.0000   1.0000   0.9834   0.3836   0.0000   0.0000   0.0000   0.0000
     0.0000   0.0000   0.0000   0.0000   0.0000   0.0000   0.0000   0.0000
     0.0000   0.0000   0.0000   0.0000   0.0000

          k = 0.2000 0.0000 0.0000 ( 10076 PWs)   bands (ev):

   -49.0500 -49.0485 -49.0480 -49.0464 -23.3520 -23.3462 -23.3425 -23.3388
   -23.3260 -23.3206 -23.2850 -23.2821 -23.2685 -23.2651 -23.2632 -23.2603
   -21.9529 -21.9264 -21.9221 -21.9078  -6.8805  -6.7294  -6.4146  -6.2045
    -6.1217  -5.9961  -5.9640  -5.8128  -5.5877  -5.5354  -5.5225  -5.4754
    -4.1411  -4.0658  -4.0471  -3.9355  -3.9189  -3.9105  -3.8996  -3.8825
    -3.8389  -3.6226  -3.5569  -3.5196   5.3066   5.3162   5.4101   5.4375
     5.5702   5.6666   5.8165   6.2172   6.3593   6.3924   6.9449   7.2711
     7.2970   7.3309   7.4743   7.5012   7.5677   7.5802   7.7190   8.4038
     8.5724   8.6172   8.6714   8.7611   8.7690   8.8651   8.8855   8.9884
     9.1378   9.2677   9.3610   9.4679   9.8014   9.8660   9.8769   9.9393
    12.0029  12.0434  12.2293  12.3194  13.8859  13.8891  14.0682  14.1975
    14.5982  14.7800  14.9403  14.9441  15.8502  15.9397  15.9993  16.0840
    16.4061  16.4539  16.5808  17.3658  17.4900

     occupation numbers 
     1.0000   1.0000   1.0000   1.0000   1.0000   1.0000   1.0000   1.0000
     1.0000   1.0000   1.0000   1.0000   1.0000   1.0000   1.0000   1.0000
     1.0000   1.0000   1.0000   1.0000   1.0000   1.0000   1.0000   1.0000
     1.0000   1.0000   1.0000   1.0000   1.0000   1.0000   1.0000   1.0000
     1.0000   1.0000   1.0000   1.0000   1.0000   1.0000   1.0000   1.0000
     1.0000   1.0000   1.0000   1.0000   1.0000   1.0000   1.0000   1.0000
     1.0000   1.0000   1.0000   1.0000   1.0000   1.0000   1.0000   1.0000
     1.0000   1.0000   1.0000   1.0000   1.0000   1.0000   1.0000   1.0000
     1.0000   1.0000   1.0000   1.0000   1.0000   1.0000   1.0000   1.0000
     1.0000   1.0000   1.0000   1.0000   1.0000   1.0000   1.0000   1.0000
     1.0000   1.0000   1.0000   1.0000   0.0000   0.0000   0.0000   0.0000
     0.0000   0.0000   0.0000   0.0000   0.0000   0.0000   0.0000   0.0000
     0.0000   0.0000   0.0000   0.0000   0.0000

          k = 0.2000 0.0000-0.1414 ( 10060 PWs)   bands (ev):

   -49.0499 -49.0487 -49.0477 -49.0463 -23.3466 -23.3435 -23.3428 -23.3317
   -23.3254 -23.3210 -23.2847 -23.2827 -23.2768 -23.2702 -23.2646 -23.2608
   -21.9504 -21.9289 -21.9207 -21.9091  -6.8547  -6.7185  -6.3455  -6.1859
    -6.1140  -6.0149  -5.9566  -5.7758  -5.6945  -5.5581  -5.5384  -5.5346
    -4.1682  -4.0043  -3.9822  -3.9756  -3.9166  -3.9066  -3.8935  -3.8474
    -3.8470  -3.6452  -3.5834  -3.5618   5.4128   5.4349   5.4761   5.5472
     5.5830   5.7233   5.8739   6.2226   6.4033   6.4178   7.0157   7.0982
     7.1791   7.3530   7.3951   7.5280   7.5706   7.5853   7.5917   8.2376
     8.4781   8.5120   8.5913   8.6312   8.9028   8.9468   8.9803   9.0283
     9.0951   9.1524   9.3091   9.3760   9.7698   9.8140   9.8824   9.9386
    12.1833  12.2506  12.2796  12.3098  13.7703  13.9541  13.9905  14.1310
    14.6752  14.7896  14.7936  14.9268  15.9450  15.9942  16.0381  16.2420
    16.5731  16.6921  16.7461  17.5352  17.6902

     occupation numbers 
     1.0000   1.0000   1.0000   1.0000   1.0000   1.0000   1.0000   1.0000
     1.0000   1.0000   1.0000   1.0000   1.0000   1.0000   1.0000   1.0000
     1.0000   1.0000   1.0000   1.0000   1.0000   1.0000   1.0000   1.0000
     1.0000   1.0000   1.0000   1.0000   1.0000   1.0000   1.0000   1.0000
     1.0000   1.0000   1.0000   1.0000   1.0000   1.0000   1.0000   1.0000
     1.0000   1.0000   1.0000   1.0000   1.0000   1.0000   1.0000   1.0000
     1.0000   1.0000   1.0000   1.0000   1.0000   1.0000   1.0000   1.0000
     1.0000   1.0000   1.0000   1.0000   1.0000   1.0000   1.0000   1.0000
     1.0000   1.0000   1.0000   1.0000   1.0000   1.0000   1.0000   1.0000
     1.0000   1.0000   1.0000   1.0000   1.0000   1.0000   1.0000   1.0000
     1.0000   1.0000   1.0000   1.0000   0.0000   0.0000   0.0000   0.0000
     0.0000   0.0000   0.0000   0.0000   0.0000   0.0000   0.0000   0.0000
     0.0000   0.0000   0.0000   0.0000   0.0000

          k = 0.0000 0.2000-0.1414 ( 10060 PWs)   bands (ev):

   -49.0499 -49.0488 -49.0477 -49.0463 -23.3480 -23.3435 -23.3431 -23.3316
   -23.3239 -23.3207 -23.2864 -23.2830 -23.2766 -23.2702 -23.2631 -23.2604
   -21.9503 -21.9290 -21.9206 -21.9092  -6.8594  -6.7368  -6.3990  -6.1784
    -6.1125  -6.0141  -5.8221  -5.8129  -5.7475  -5.5671  -5.5265  -5.4744
    -4.1863  -4.1295  -3.9985  -3.9852  -3.9498  -3.9103  -3.8346  -3.7978
    -3.7792  -3.6831  -3.5727  -3.5345   5.4185   5.4396   5.4742   5.5396
     5.5554   5.7474   5.8467   6.2354   6.3965   6.4060   6.9710   7.1054
     7.1448   7.3372   7.3543   7.4731   7.5764   7.6076   7.6353   8.2776
     8.3979   8.4682   8.5371   8.6390   8.8964   8.9454   8.9916   9.0704
     9.1917   9.2023   9.3613   9.3807   9.8193   9.8538   9.9064   9.9433
    12.1353  12.2251  12.2835  12.2931  13.7695  13.9680  14.0000  14.0837
    14.6717  14.7728  14.7865  14.9172  16.0165  16.0353  16.0359  16.2125
    16.6046  16.6874  16.7528  17.6309  17.6731

     occupation numbers 
     1.0000   1.0000   1.0000   1.0000   1.0000   1.0000   1.0000   1.0000
     1.0000   1.0000   1.0000   1.0000   1.0000   1.0000   1.0000   1.0000
     1.0000   1.0000   1.0000   1.0000   1.0000   1.0000   1.0000   1.0000
     1.0000   1.0000   1.0000   1.0000   1.0000   1.0000   1.0000   1.0000
     1.0000   1.0000   1.0000   1.0000   1.0000   1.0000   1.0000   1.0000
     1.0000   1.0000   1.0000   1.0000   1.0000   1.0000   1.0000   1.0000
     1.0000   1.0000   1.0000   1.0000   1.0000   1.0000   1.0000   1.0000
     1.0000   1.0000   1.0000   1.0000   1.0000   1.0000   1.0000   1.0000
     1.0000   1.0000   1.0000   1.0000   1.0000   1.0000   1.0000   1.0000
     1.0000   1.0000   1.0000   1.0000   1.0000   1.0000   1.0000   1.0000
     1.0000   1.0000   1.0000   1.0000   0.0000   0.0000   0.0000   0.0000
     0.0000   0.0000   0.0000   0.0000   0.0000   0.0000   0.0000   0.0000
     0.0000   0.0000   0.0000   0.0000   0.0000

          k = 0.2000 0.0000-0.2828 ( 10071 PWs)   bands (ev):

   -49.0495 -49.0491 -49.0473 -49.0468 -23.3451 -23.3438 -23.3241 -23.3234
   -23.3225 -23.3131 -23.2978 -23.2905 -23.2837 -23.2821 -23.2634 -23.2619
   -21.9436 -21.9354 -21.9171 -21.9127  -6.7909  -6.7301  -6.1648  -6.0975
    -6.0943  -6.0449  -5.9797  -5.9064  -5.6914  -5.6416  -5.6291  -5.5967
    -4.1458  -4.0655  -3.9530  -3.9205  -3.8956  -3.8868  -3.8280  -3.8211
    -3.7539  -3.7182  -3.6756  -3.6555   5.4197   5.4281   5.6049   5.6112
     5.8805   6.0624   6.1494   6.3624   6.5759   6.6176   6.7741   6.8822
     6.9165   7.1975   7.3061   7.4000   7.5271   7.5428   7.7300   7.7748
     8.0717   8.1184   8.6460   8.7607   8.8537   9.0232   9.0693   9.0840
     9.1681   9.1898   9.2928   9.3753   9.5927   9.6509   9.9205   9.9350
    12.2518  12.2847  12.7670  12.7961  13.3580  13.4577  14.1592  14.3108
    14.4728  14.5570  14.8228  14.8781  15.9610  15.9802  16.6236  16.6969
    16.9144  17.1783  17.1936  17.3047  17.3550

     occupation numbers 
     1.0000   1.0000   1.0000   1.0000   1.0000   1.0000   1.0000   1.0000
     1.0000   1.0000   1.0000   1.0000   1.0000   1.0000   1.0000   1.0000
     1.0000   1.0000   1.0000   1.0000   1.0000   1.0000   1.0000   1.0000
     1.0000   1.0000   1.0000   1.0000   1.0000   1.0000   1.0000   1.0000
     1.0000   1.0000   1.0000   1.0000   1.0000   1.0000   1.0000   1.0000
     1.0000   1.0000   1.0000   1.0000   1.0000   1.0000   1.0000   1.0000
     1.0000   1.0000   1.0000   1.0000   1.0000   1.0000   1.0000   1.0000
     1.0000   1.0000   1.0000   1.0000   1.0000   1.0000   1.0000   1.0000
     1.0000   1.0000   1.0000   1.0000   1.0000   1.0000   1.0000   1.0000
     1.0000   1.0000   1.0000   1.0000   1.0000   1.0000   1.0000   1.0000
     1.0000   1.0000   1.0000   1.0000   0.9954   0.6218   0.0000   0.0000
     0.0000   0.0000   0.0000   0.0000   0.0000   0.0000   0.0000   0.0000
     0.0000   0.0000   0.0000   0.0000   0.0000

          k = 0.0000 0.2000-0.2828 ( 10071 PWs)   bands (ev):

   -49.0495 -49.0491 -49.0473 -49.0468 -23.3462 -23.3446 -23.3234 -23.3230
   -23.3217 -23.3131 -23.2979 -23.2906 -23.2847 -23.2827 -23.2622 -23.2612
   -21.9436 -21.9355 -21.9171 -21.9128  -6.7985  -6.7429  -6.2305  -6.1219
    -6.0894  -6.0548  -5.9092  -5.8736  -5.7113  -5.6283  -5.5871  -5.5810
    -4.1466  -4.0678  -4.0352  -4.0033  -3.9061  -3.8673  -3.8281  -3.7882
    -3.7269  -3.7236  -3.6404  -3.6140   5.4250   5.4330   5.5743   5.5905
     5.8965   6.0613   6.1500   6.3693   6.5777   6.5966   6.7839   6.8441
     6.9034   7.1145   7.3855   7.4551   7.4697   7.5624   7.6820   7.7591
     8.0606   8.0719   8.5637   8.6514   8.8890   9.0360   9.1254   9.1803
     9.2131   9.2570   9.3000   9.4301   9.6282   9.6951   9.9269   9.9390
    12.2123  12.2590  12.7357  12.8117  13.3481  13.4585  14.1637  14.2781
    14.4631  14.5427  14.8100  14.8668  16.0345  16.0357  16.6031  16.6737
    17.0371  17.0757  17.1809  17.2955  17.4541

     occupation numbers 
     1.0000   1.0000   1.0000   1.0000   1.0000   1.0000   1.0000   1.0000
     1.0000   1.0000   1.0000   1.0000   1.0000   1.0000   1.0000   1.0000
     1.0000   1.0000   1.0000   1.0000   1.0000   1.0000   1.0000   1.0000
     1.0000   1.0000   1.0000   1.0000   1.0000   1.0000   1.0000   1.0000
     1.0000   1.0000   1.0000   1.0000   1.0000   1.0000   1.0000   1.0000
     1.0000   1.0000   1.0000   1.0000   1.0000   1.0000   1.0000   1.0000
     1.0000   1.0000   1.0000   1.0000   1.0000   1.0000   1.0000   1.0000
     1.0000   1.0000   1.0000   1.0000   1.0000   1.0000   1.0000   1.0000
     1.0000   1.0000   1.0000   1.0000   1.0000   1.0000   1.0000   1.0000
     1.0000   1.0000   1.0000   1.0000   1.0000   1.0000   1.0000   1.0000
     1.0000   1.0000   1.0000   1.0000   0.9972   0.6133   0.0000   0.0000
     0.0000   0.0000   0.0000   0.0000   0.0000   0.0000   0.0000   0.0000
     0.0000   0.0000   0.0000   0.0000   0.0000

          k = 0.4000 0.0000 0.0000 ( 10072 PWs)   bands (ev):

   -49.0492 -49.0486 -49.0478 -49.0471 -23.3468 -23.3418 -23.3274 -23.3239
   -23.3099 -23.3040 -23.3025 -23.3007 -23.2867 -23.2794 -23.2669 -23.2649
   -21.9397 -21.9281 -21.9221 -21.9150  -6.6897  -6.5907  -6.5433  -6.0758
    -6.0668  -6.0427  -5.9822  -5.8963  -5.8558  -5.6749  -5.6493  -5.6240
    -3.9996  -3.9415  -3.9373  -3.9316  -3.9003  -3.8968  -3.8140  -3.7507
    -3.7017  -3.6925  -3.6618  -3.5949   5.3259   5.3370   6.0736   6.0882
     6.1103   6.1315   6.3445   6.4007   6.4503   6.5123   6.8333   6.8458
     6.8798   6.9383   6.9573   6.9724   7.4632   7.5611   7.6151   7.6652
     7.8125   8.1890   8.4420   8.6776   8.7759   8.8232   8.9645   9.0957
     9.1344   9.1497   9.1969   9.2931   9.4933   9.6294   9.6454   9.6616
    12.6184  12.8013  13.1434  13.2494  13.3557  13.6206  13.9616  14.1990
    14.2587  14.3391  14.4260  14.6431  16.0110  16.2549  16.8425  17.0916
    17.1628  17.2451  17.6387  17.6478  17.9182

     occupation numbers 
     1.0000   1.0000   1.0000   1.0000   1.0000   1.0000   1.0000   1.0000
     1.0000   1.0000   1.0000   1.0000   1.0000   1.0000   1.0000   1.0000
     1.0000   1.0000   1.0000   1.0000   1.0000   1.0000   1.0000   1.0000
     1.0000   1.0000   1.0000   1.0000   1.0000   1.0000   1.0000   1.0000
     1.0000   1.0000   1.0000   1.0000   1.0000   1.0000   1.0000   1.0000
     1.0000   1.0000   1.0000   1.0000   1.0000   1.0000   1.0000   1.0000
     1.0000   1.0000   1.0000   1.0000   1.0000   1.0000   1.0000   1.0000
     1.0000   1.0000   1.0000   1.0000   1.0000   1.0000   1.0000   1.0000
     1.0000   1.0000   1.0000   1.0000   1.0000   1.0000   1.0000   1.0000
     1.0000   1.0000   1.0000   1.0000   1.0000   1.0000   1.0000   1.0000
     1.0000   1.0000   1.0000   1.0000   0.9959   0.0006   0.0000   0.0000
     0.0000   0.0000   0.0000   0.0000   0.0000   0.0000   0.0000   0.0000
     0.0000   0.0000   0.0000   0.0000   0.0000

          k = 0.4000 0.0000-0.1414 ( 10078 PWs)   bands (ev):

   -49.0492 -49.0483 -49.0482 -49.0471 -23.3395 -23.3346 -23.3269 -23.3241
   -23.3091 -23.3037 -23.3031 -23.3012 -23.2862 -23.2801 -23.2745 -23.2722
   -21.9380 -21.9268 -21.9238 -21.9162  -6.6460  -6.5332  -6.5288  -6.0956
    -6.0743  -6.0253  -5.9702  -5.9139  -5.8461  -5.7017  -5.6954  -5.6830
[...]
     7.7674   8.2746   8.3984   8.6041   8.7549   8.8136   8.8930   8.8988
     9.0207   9.0527   9.2078   9.2654   9.3319   9.3501   9.7098   9.8623
    12.3073  12.9101  13.4308  13.4382  13.4997  13.8819  14.0403  14.1810
    14.1833  14.3207  14.3652  14.6377  16.0091  16.4357  16.7351  17.0195
    17.2799  17.3594  17.6083  17.6822  18.0065

     occupation numbers 
     1.0000   1.0000   1.0000   1.0000   1.0000   1.0000   1.0000   1.0000
     1.0000   1.0000   1.0000   1.0000   1.0000   1.0000   1.0000   1.0000
     1.0000   1.0000   1.0000   1.0000   1.0000   1.0000   1.0000   1.0000
     1.0000   1.0000   1.0000   1.0000   1.0000   1.0000   1.0000   1.0000
     1.0000   1.0000   1.0000   1.0000   1.0000   1.0000   1.0000   1.0000
     1.0000   1.0000   1.0000   1.0000   1.0000   1.0000   1.0000   1.0000
     1.0000   1.0000   1.0000   1.0000   1.0000   1.0000   1.0000   1.0000
     1.0000   1.0000   1.0000   1.0000   1.0000   1.0000   1.0000   1.0000
     1.0000   1.0000   1.0000   1.0000   1.0000   1.0000   1.0000   1.0000
     1.0000   1.0000   1.0000   1.0000   1.0000   1.0000   1.0000   1.0000
     1.0000   1.0000   0.8600   0.8105   0.1735   0.0000   0.0000   0.0000
     0.0000   0.0000   0.0000   0.0000   0.0000   0.0000   0.0000   0.0000
     0.0000   0.0000   0.0000   0.0000   0.0000

          k =-0.4000-0.2000-0.1414 ( 10093 PWs)   bands (ev):

   -49.0491 -49.0486 -49.0480 -49.0473 -23.3441 -23.3375 -23.3371 -23.3347
   -23.3243 -23.3184 -23.2897 -23.2862 -23.2743 -23.2728 -23.2705 -23.2671
   -21.9351 -21.9260 -21.9238 -21.9177  -6.7896  -6.7066  -6.5177  -6.1928
    -6.0618  -5.9730  -5.8606  -5.8473  -5.7434  -5.7400  -5.7006  -5.6778
    -4.0133  -3.9853  -3.9721  -3.9361  -3.8834  -3.7872  -3.7722  -3.7239
    -3.6828  -3.6474  -3.6017  -3.5291   5.4546   5.4896   5.5546   5.6567
     5.9193   6.0140   6.1307   6.2459   6.4479   6.7638   6.8553   7.0195
     7.1447   7.1467   7.2602   7.3080   7.3740   7.4632   7.4641   7.7202
     7.7674   8.2746   8.3984   8.6041   8.7549   8.8136   8.8930   8.8988
     9.0207   9.0527   9.2078   9.2654   9.3319   9.3501   9.7098   9.8623
    12.3073  12.9101  13.4308  13.4382  13.4997  13.8819  14.0403  14.1810
    14.1833  14.3207  14.3652  14.6377  16.0091  16.4357  16.7351  17.0195
    17.2799  17.3593  17.6082  17.6822  18.0065

     occupation numbers 
     1.0000   1.0000   1.0000   1.0000   1.0000   1.0000   1.0000   1.0000
     1.0000   1.0000   1.0000   1.0000   1.0000   1.0000   1.0000   1.0000
     1.0000   1.0000   1.0000   1.0000   1.0000   1.0000   1.0000   1.0000
     1.0000   1.0000   1.0000   1.0000   1.0000   1.0000   1.0000   1.0000
     1.0000   1.0000   1.0000   1.0000   1.0000   1.0000   1.0000   1.0000
     1.0000   1.0000   1.0000   1.0000   1.0000   1.0000   1.0000   1.0000
     1.0000   1.0000   1.0000   1.0000   1.0000   1.0000   1.0000   1.0000
     1.0000   1.0000   1.0000   1.0000   1.0000   1.0000   1.0000   1.0000
     1.0000   1.0000   1.0000   1.0000   1.0000   1.0000   1.0000   1.0000
     1.0000   1.0000   1.0000   1.0000   1.0000   1.0000   1.0000   1.0000
     1.0000   1.0000   0.8600   0.8105   0.1735   0.0000   0.0000   0.0000
     0.0000   0.0000   0.0000   0.0000   0.0000   0.0000   0.0000   0.0000
     0.0000   0.0000   0.0000   0.0000   0.0000

          k =-0.2000 0.4000-0.1414 ( 10093 PWs)   bands (ev):

   -49.0491 -49.0486 -49.0480 -49.0473 -23.3452 -23.3374 -23.3373 -23.3348
   -23.3251 -23.3186 -23.2887 -23.2860 -23.2742 -23.2727 -23.2696 -23.2669
   -21.9350 -21.9259 -21.9239 -21.9178  -6.8137  -6.7356  -6.5298  -6.2091
    -6.0471  -5.9203  -5.8910  -5.8727  -5.7762  -5.6772  -5.6427  -5.6375
    -4.0719  -4.0179  -3.9977  -3.9924  -3.9398  -3.8192  -3.7487  -3.6711
    -3.6189  -3.5884  -3.5858  -3.5218   5.4554   5.4814   5.5576   5.6492
     5.8990   5.9880   6.1200   6.2367   6.4450   6.7435   6.8364   6.9975
     7.1246   7.1376   7.1966   7.3116   7.3295   7.4503   7.4867   7.6839
     7.7555   8.2719   8.4566   8.6204   8.7481   8.7705   8.9646   8.9721
     9.0174   9.1186   9.1551   9.3144   9.3435   9.4249   9.7502   9.9114
    12.2950  12.9003  13.4000  13.4306  13.5071  13.8679  14.0021  14.1809
    14.1968  14.2981  14.3527  14.6205  16.0267  16.4472  16.7602  16.9833
    17.2445  17.4375  17.5702  17.5946  17.9315

     occupation numbers 
     1.0000   1.0000   1.0000   1.0000   1.0000   1.0000   1.0000   1.0000
     1.0000   1.0000   1.0000   1.0000   1.0000   1.0000   1.0000   1.0000
     1.0000   1.0000   1.0000   1.0000   1.0000   1.0000   1.0000   1.0000
     1.0000   1.0000   1.0000   1.0000   1.0000   1.0000   1.0000   1.0000
     1.0000   1.0000   1.0000   1.0000   1.0000   1.0000   1.0000   1.0000
     1.0000   1.0000   1.0000   1.0000   1.0000   1.0000   1.0000   1.0000
     1.0000   1.0000   1.0000   1.0000   1.0000   1.0000   1.0000   1.0000
     1.0000   1.0000   1.0000   1.0000   1.0000   1.0000   1.0000   1.0000
     1.0000   1.0000   1.0000   1.0000   1.0000   1.0000   1.0000   1.0000
     1.0000   1.0000   1.0000   1.0000   1.0000   1.0000   1.0000   1.0000
     1.0000   1.0000   0.9653   0.8615   0.1276   0.0000   0.0000   0.0000
     0.0000   0.0000   0.0000   0.0000   0.0000   0.0000   0.0000   0.0000
     0.0000   0.0000   0.0000   0.0000   0.0000

          k = 0.4000 0.2000-0.2828 ( 10093 PWs)   bands (ev):

   -49.0489 -49.0483 -49.0482 -49.0476 -23.3416 -23.3390 -23.3235 -23.3215
   -23.3174 -23.3147 -23.2942 -23.2918 -23.2884 -23.2870 -23.2696 -23.2683
   -21.9316 -21.9272 -21.9234 -21.9202  -6.6765  -6.5708  -6.5506  -6.3584
    -5.9950  -5.9426  -5.8590  -5.8483  -5.8209  -5.7964  -5.7060  -5.7041
    -4.0430  -4.0353  -3.9786  -3.9573  -3.8156  -3.7681  -3.7557  -3.7437
    -3.6429  -3.6335  -3.6191  -3.5843   5.4946   5.4990   6.0731   6.0965
     6.1192   6.1235   6.2981   6.3536   6.5233   6.6779   6.7908   6.8699
     6.9453   7.0019   7.0204   7.1617   7.2318   7.3108   7.4725   7.4902
     7.6553   7.8254   8.2771   8.3750   8.7916   8.8473   8.9163   9.0225
     9.1595   9.2126   9.2252   9.3263   9.3859   9.4006   9.6253   9.6901
    12.8448  13.2823  13.4136  13.4567  13.5610  13.6257  13.8174  13.9587
    14.1694  14.2490  14.2808  14.4077  16.3983  16.6313  17.1158  17.3376
    17.4608  17.7499  17.7835  17.7921  17.9486

     occupation numbers 
     1.0000   1.0000   1.0000   1.0000   1.0000   1.0000   1.0000   1.0000
     1.0000   1.0000   1.0000   1.0000   1.0000   1.0000   1.0000   1.0000
     1.0000   1.0000   1.0000   1.0000   1.0000   1.0000   1.0000   1.0000
     1.0000   1.0000   1.0000   1.0000   1.0000   1.0000   1.0000   1.0000
     1.0000   1.0000   1.0000   1.0000   1.0000   1.0000   1.0000   1.0000
     1.0000   1.0000   1.0000   1.0000   1.0000   1.0000   1.0000   1.0000
     1.0000   1.0000   1.0000   1.0000   1.0000   1.0000   1.0000   1.0000
     1.0000   1.0000   1.0000   1.0000   1.0000   1.0000   1.0000   1.0000
     1.0000   1.0000   1.0000   1.0000   1.0000   1.0000   1.0000   1.0000
     1.0000   1.0000   1.0000   1.0000   1.0000   1.0000   1.0000   1.0000
     1.0000   0.9999   0.9347   0.6339   0.0103   0.0004   0.0000   0.0000
     0.0000   0.0000   0.0000   0.0000   0.0000   0.0000   0.0000   0.0000
     0.0000   0.0000   0.0000   0.0000   0.0000

          k =-0.4000-0.2000-0.2828 ( 10093 PWs)   bands (ev):

   -49.0489 -49.0483 -49.0482 -49.0476 -23.3416 -23.3390 -23.3235 -23.3215
   -23.3174 -23.3147 -23.2942 -23.2918 -23.2884 -23.2870 -23.2696 -23.2683
   -21.9316 -21.9272 -21.9234 -21.9202  -6.6765  -6.5708  -6.5506  -6.3584
    -5.9950  -5.9426  -5.8590  -5.8483  -5.8209  -5.7964  -5.7060  -5.7041
    -4.0430  -4.0353  -3.9786  -3.9573  -3.8156  -3.7681  -3.7557  -3.7437
    -3.6429  -3.6335  -3.6191  -3.5843   5.4946   5.4990   6.0731   6.0965
     6.1192   6.1235   6.2981   6.3536   6.5233   6.6779   6.7908   6.8699
     6.9453   7.0019   7.0204   7.1617   7.2318   7.3108   7.4725   7.4902
     7.6553   7.8254   8.2771   8.3750   8.7916   8.8473   8.9163   9.0225
     9.1595   9.2126   9.2252   9.3263   9.3859   9.4006   9.6253   9.6901
    12.8448  13.2823  13.4136  13.4567  13.5610  13.6257  13.8174  13.9587
    14.1694  14.2490  14.2808  14.4077  16.3983  16.6313  17.1158  17.3376
    17.4608  17.7501  17.7836  17.7921  17.9461

     occupation numbers 
     1.0000   1.0000   1.0000   1.0000   1.0000   1.0000   1.0000   1.0000
     1.0000   1.0000   1.0000   1.0000   1.0000   1.0000   1.0000   1.0000
     1.0000   1.0000   1.0000   1.0000   1.0000   1.0000   1.0000   1.0000
     1.0000   1.0000   1.0000   1.0000   1.0000   1.0000   1.0000   1.0000
     1.0000   1.0000   1.0000   1.0000   1.0000   1.0000   1.0000   1.0000
     1.0000   1.0000   1.0000   1.0000   1.0000   1.0000   1.0000   1.0000
     1.0000   1.0000   1.0000   1.0000   1.0000   1.0000   1.0000   1.0000
     1.0000   1.0000   1.0000   1.0000   1.0000   1.0000   1.0000   1.0000
     1.0000   1.0000   1.0000   1.0000   1.0000   1.0000   1.0000   1.0000
     1.0000   1.0000   1.0000   1.0000   1.0000   1.0000   1.0000   1.0000
     1.0000   0.9999   0.9347   0.6339   0.0103   0.0004   0.0000   0.0000
     0.0000   0.0000   0.0000   0.0000   0.0000   0.0000   0.0000   0.0000
     0.0000   0.0000   0.0000   0.0000   0.0000

          k =-0.2000 0.4000-0.2828 ( 10093 PWs)   bands (ev):

   -49.0489 -49.0483 -49.0482 -49.0476 -23.3424 -23.3395 -23.3244 -23.3221
   -23.3172 -23.3146 -23.2941 -23.2917 -23.2878 -23.2866 -23.2689 -23.2678
   -21.9315 -21.9273 -21.9234 -21.9203  -6.6980  -6.5856  -6.5801  -6.3815
    -5.9966  -5.9390  -5.8722  -5.8464  -5.8140  -5.7339  -5.6665  -5.6569
    -4.0743  -4.0575  -3.9860  -3.9743  -3.9328  -3.8679  -3.7192  -3.6921
    -3.5994  -3.5846  -3.5753  -3.5528   5.4868   5.4925   6.0463   6.0697
     6.1102   6.1213   6.3084   6.3378   6.5112   6.6442   6.7727   6.8615
     6.9546   6.9857   7.0207   7.1700   7.2337   7.3104   7.4244   7.4346
     7.6523   7.8323   8.2185   8.3206   8.8391   8.9230   8.9652   9.0446
     9.2043   9.2448   9.2457   9.3180   9.4194   9.4469   9.6723   9.7396
    12.8296  13.2573  13.4073  13.4210  13.5594  13.6247  13.8241  13.9624
    14.1385  14.2234  14.2568  14.3864  16.4268  16.6631  17.1363  17.3312
    17.4663  17.6582  17.6617  17.7697  17.8999

     occupation numbers 
     1.0000   1.0000   1.0000   1.0000   1.0000   1.0000   1.0000   1.0000
     1.0000   1.0000   1.0000   1.0000   1.0000   1.0000   1.0000   1.0000
     1.0000   1.0000   1.0000   1.0000   1.0000   1.0000   1.0000   1.0000
     1.0000   1.0000   1.0000   1.0000   1.0000   1.0000   1.0000   1.0000
     1.0000   1.0000   1.0000   1.0000   1.0000   1.0000   1.0000   1.0000
     1.0000   1.0000   1.0000   1.0000   1.0000   1.0000   1.0000   1.0000
     1.0000   1.0000   1.0000   1.0000   1.0000   1.0000   1.0000   1.0000
     1.0000   1.0000   1.0000   1.0000   1.0000   1.0000   1.0000   1.0000
     1.0000   1.0000   1.0000   1.0000   1.0000   1.0000   1.0000   1.0000
     1.0000   1.0000   1.0000   1.0000   1.0000   1.0000   1.0000   1.0000
     1.0000   1.0000   0.9512   0.9089   0.0112   0.0005   0.0000   0.0000
     0.0000   0.0000   0.0000   0.0000   0.0000   0.0000   0.0000   0.0000
     0.0000   0.0000   0.0000   0.0000   0.0000

          k = 0.4000 0.4000-0.1414 ( 10091 PWs)   bands (ev):

   -49.0489 -49.0485 -49.0480 -49.0476 -23.3540 -23.3472 -23.3448 -23.3381
   -23.3353 -23.3339 -23.2738 -23.2730 -23.2695 -23.2668 -23.2623 -23.2597
   -21.9292 -21.9258 -21.9230 -21.9207  -6.9351  -6.9063  -6.4601  -6.3429
    -6.0306  -5.9790  -5.8905  -5.8594  -5.7789  -5.7512  -5.5197  -5.4910
    -3.9868  -3.9757  -3.9557  -3.9337  -3.9301  -3.8681  -3.7054  -3.6809
    -3.5461  -3.5426  -3.4833  -3.4559   5.2392   5.2461   5.4504   5.4906
     5.6035   5.6180   5.6323   5.7189   6.8731   6.9923   7.1328   7.1668
     7.1776   7.3081   7.3825   7.4486   7.5719   7.5755   7.5889   7.7604
     8.1579   8.2565   8.4727   8.5889   8.6546   8.6970   8.7047   8.8492
     8.8556   8.9431   9.0024   9.2108   9.2119   9.2944   9.9230   9.9568
    12.1019  12.3497  13.8000  13.8219  13.8819  13.9071  14.0832  14.2093
    14.2407  14.3544  14.6089  14.6516  15.8069  16.0145  16.4301  16.8125
    17.3136  17.5735  17.6386  17.7637  17.9128

     occupation numbers 
     1.0000   1.0000   1.0000   1.0000   1.0000   1.0000   1.0000   1.0000
     1.0000   1.0000   1.0000   1.0000   1.0000   1.0000   1.0000   1.0000
     1.0000   1.0000   1.0000   1.0000   1.0000   1.0000   1.0000   1.0000
     1.0000   1.0000   1.0000   1.0000   1.0000   1.0000   1.0000   1.0000
     1.0000   1.0000   1.0000   1.0000   1.0000   1.0000   1.0000   1.0000
     1.0000   1.0000   1.0000   1.0000   1.0000   1.0000   1.0000   1.0000
     1.0000   1.0000   1.0000   1.0000   1.0000   1.0000   1.0000   1.0000
     1.0000   1.0000   1.0000   1.0000   1.0000   1.0000   1.0000   1.0000
     1.0000   1.0000   1.0000   1.0000   1.0000   1.0000   1.0000   1.0000
     1.0000   1.0000   1.0000   1.0000   1.0000   1.0000   1.0000   1.0000
     1.0000   1.0000   0.0000   0.0000   0.0000   0.0000   0.0000   0.0000
     0.0000   0.0000   0.0000   0.0000   0.0000   0.0000   0.0000   0.0000
     0.0000   0.0000   0.0000   0.0000   0.0000

          k = 0.4000 0.4000-0.2828 ( 10112 PWs)   bands (ev):

   -49.0485 -49.0484 -49.0483 -49.0481 -23.3511 -23.3477 -23.3441 -23.3407
   -23.3166 -23.3154 -23.2929 -23.2921 -23.2688 -23.2678 -23.2614 -23.2605
   -21.9273 -21.9249 -21.9242 -21.9223  -6.7918  -6.7508  -6.6105  -6.5419
    -5.9727  -5.9288  -5.9024  -5.8606  -5.7251  -5.6842  -5.6175  -5.5764
    -3.9986  -3.9818  -3.9610  -3.9455  -3.8650  -3.8227  -3.7366  -3.7316
    -3.5331  -3.5330  -3.5076  -3.4947   5.2491   5.2507   5.4918   5.4924
     5.9263   5.9719   6.2394   6.2603   6.3932   6.4860   7.0020   7.0355
     7.0836   7.1210   7.2534   7.3232   7.4581   7.4988   7.5045   7.6477
     8.2262   8.3580   8.3691   8.5255   8.6132   8.6847   8.7992   8.8191
     8.9128   8.9641   9.0342   9.0719   9.3291   9.3664   9.7424   9.7434
    12.7261  12.8874  13.3846  13.4776  13.9310  13.9721  13.9831  14.1368
    14.3166  14.3577  14.4352  14.4923  16.1003  16.3261  16.4424  16.7211
    17.6810  17.8450  17.9547  18.0666  18.1025

     occupation numbers 
     1.0000   1.0000   1.0000   1.0000   1.0000   1.0000   1.0000   1.0000
     1.0000   1.0000   1.0000   1.0000   1.0000   1.0000   1.0000   1.0000
     1.0000   1.0000   1.0000   1.0000   1.0000   1.0000   1.0000   1.0000
     1.0000   1.0000   1.0000   1.0000   1.0000   1.0000   1.0000   1.0000
     1.0000   1.0000   1.0000   1.0000   1.0000   1.0000   1.0000   1.0000
     1.0000   1.0000   1.0000   1.0000   1.0000   1.0000   1.0000   1.0000
     1.0000   1.0000   1.0000   1.0000   1.0000   1.0000   1.0000   1.0000
     1.0000   1.0000   1.0000   1.0000   1.0000   1.0000   1.0000   1.0000
     1.0000   1.0000   1.0000   1.0000   1.0000   1.0000   1.0000   1.0000
     1.0000   1.0000   1.0000   1.0000   1.0000   1.0000   1.0000   1.0000
     1.0000   1.0000   0.9834   0.3836   0.0000   0.0000   0.0000   0.0000
     0.0000   0.0000   0.0000   0.0000   0.0000   0.0000   0.0000   0.0000
     0.0000   0.0000   0.0000   0.0000   0.0000

     the Fermi energy is    13.4679 ev

!    total energy              =   -2923.81684981 Ry
     total all-electron energy =    -59563.343551 Ry
     estimated scf accuracy    <          1.7E-10 Ry
     smearing contrib. (-TS)   =      -0.00139615 Ry
     internal energy E=F+TS    =   -2923.81545366 Ry

     The total energy is F=E-TS. E is the sum of the following terms:
     one-electron contribution =    -271.56578717 Ry
     hartree contribution      =     244.76453422 Ry
     xc contribution           =    -239.24049126 Ry
     ewald contribution        =    -939.23704646 Ry
     one-center paw contrib.   =   -1718.53666299 Ry
      -> PAW hartree energy AE =      35.14525655 Ry
      -> PAW hartree energy PS =     -34.94513862 Ry
      -> PAW xc energy AE      =    -201.62227561 Ry
      -> PAW xc energy PS      =      17.15132698 Ry
      -> total E_H with PAW    =     244.96465216 Ry
      -> total E_XC with PAW   =    -423.71143989 Ry

     convergence has been achieved in  22 iterations

     Writing all to output data dir ./out/smo.save/ :
     XML data file, charge density, pseudopotentials, collected wavefunctions

     init_run     :      2.38s CPU      2.63s WALL (       1 calls)
     electrons    :     61.97s CPU     72.97s WALL (       1 calls)

     Called by init_run:
     wfcinit      :      0.85s CPU      0.90s WALL (       1 calls)
     wfcinit:atom :      0.00s CPU      0.01s WALL (       1 calls)
     wfcinit:wfcr :      0.79s CPU      0.80s WALL (       1 calls)
     potinit      :      0.25s CPU      0.33s WALL (       1 calls)
     hinit0       :      1.15s CPU      1.19s WALL (       1 calls)

     Called by electrons:
     c_bands      :     47.85s CPU     56.79s WALL (      22 calls)
     sum_band     :      8.63s CPU      9.28s WALL (      22 calls)
     v_of_rho     :      2.01s CPU      2.08s WALL (      23 calls)
     v_h          :      0.89s CPU      0.92s WALL (      23 calls)
     v_xc         :      1.12s CPU      1.15s WALL (      23 calls)
     newd         :      0.83s CPU      0.97s WALL (      23 calls)
     PAW_pot      :      0.62s CPU      1.06s WALL (      23 calls)
     mix_rho      :      0.59s CPU      0.64s WALL (      22 calls)

     Called by c_bands:
     init_us_2    :      0.80s CPU      0.81s WALL (      45 calls)
     cegterg      :     44.53s CPU     44.95s WALL (      22 calls)

     Called by sum_band:
     sum_band:wei :      0.04s CPU      0.08s WALL (      22 calls)
     sum_band:loo :      5.90s CPU      5.92s WALL (      22 calls)
     sum_band:buf :      0.00s CPU      0.00s WALL (      22 calls)
     sum_band:ini :      0.41s CPU      0.42s WALL (      22 calls)
     sum_band:cal :      1.29s CPU      1.29s WALL (      22 calls)
     sum_band:bec :      0.00s CPU      0.00s WALL (      22 calls)
     addusdens    :      0.82s CPU      0.99s WALL (      22 calls)
                                        0.00s GPU  (      22 calls)
     addusd:skk   :      0.01s CPU      0.01s WALL (      66 calls)
                                        0.00s GPU  (      66 calls)

     Called by *egterg:
     cdiaghg      :      1.59s CPU      1.60s WALL (     143 calls)
     cegterg:over :      3.46s CPU      3.48s WALL (     121 calls)
     cegterg:upda :      2.20s CPU      2.24s WALL (     121 calls)
     cegterg:last :      4.77s CPU      4.81s WALL (      45 calls)
     h_psi        :     28.03s CPU     28.24s WALL (     144 calls)
     s_psi        :      3.66s CPU      3.69s WALL (     144 calls)
     g_psi        :      0.08s CPU      0.09s WALL (     121 calls)

     Called by h_psi:
     h_psi:calbec :      3.49s CPU      3.50s WALL (     144 calls)
     vloc_psi     :     20.77s CPU     20.88s WALL (     144 calls)
                                        0.00s GPU  (     144 calls)
     add_vuspsi   :      3.61s CPU      3.63s WALL (     144 calls)

     General routines
     calbec       :      4.77s CPU      4.79s WALL (     166 calls)
     fft          :      1.45s CPU      1.47s WALL (     136 calls)
     ffts         :      0.10s CPU      0.10s WALL (      45 calls)
     fftw         :     23.01s CPU     23.12s WALL (   13182 calls)
     interpolate  :      0.57s CPU      0.60s WALL (      23 calls)

     Parallel routines

     PAW routines
     PAW_pot      :      0.62s CPU      1.06s WALL (      23 calls)
     PAW_symme    :      0.02s CPU      0.03s WALL (      45 calls)

     PWSCF        :   1m 4.70s CPU   1m18.63s WALL


   This run was terminated on:  20:36:22  29Nov2025            

=------------------------------------------------------------------------------=
   JOB DONE.
=------------------------------------------------------------------------------=
