
             +---------------------------------------------------+
             |                                                   |
             |                   WANNIER90                       |
             |                                                   |
             +---------------------------------------------------+
             |                                                   |
             |        Welcome to the Maximally-Localized         |
             |        Generalized Wannier Functions code         |
             |            http://www.wannier.org                 |
             |                                                   |
             |                                                   |
             |  Wannier90 Developer Group:                       |
             |    Giovanni Pizzi    (Paul Scherrer Institute)    |
             |    Valerio Vitale    (University of Trieste)      |
             |    David Vanderbilt  (Rutgers University)         |
             |    Nicola Marzari    (EPFL)                       |
             |    Ivo Souza         (Universidad del Pais Vasco) |
             |    Arash A. Mostofi  (Imperial College London)    |
             |    Jonathan R. Yates (University of Oxford)       |
             |                                                   |
             |  For the full list of Wannier90 3.x authors,      |
             |  please check the code documentation and the      |
             |  README on the GitHub page of the code            |
             |                                                   |
             |                                                   |
             |  Please cite                                      |
             |                                                   |
             |  [ref] "Wannier90 as a community code:            |
             |        new features and applications",            |
             |        G. Pizzi et al., J. Phys. Cond. Matt. 32,  |
             |        165902 (2020).                             |
             |        http://doi.org/10.1088/1361-648X/ab51ff    |
             |                                                   |
             |  in any publications arising from the use of      |
             |  this code. For the method please cite            |
             |                                                   |
             |  [ref] "Maximally Localized Generalised Wannier   |
             |         Functions for Composite Energy Bands"     |
             |         N. Marzari and D. Vanderbilt              |
             |         Phys. Rev. B 56 12847 (1997)              |
             |                                                   |
             |  [ref] "Maximally Localized Wannier Functions     |
             |         for Entangled Energy Bands"               |
             |         I. Souza, N. Marzari and D. Vanderbilt    |
             |         Phys. Rev. B 65 035109 (2001)             |
             |                                                   |
             |                                                   |
             | Copyright (c) 1996-2020                           |
             |        The Wannier90 Developer Group and          |
             |        individual contributors                    |
             |                                                   |
             |      Release: 3.1.0        5th March    2020      |
             |                                                   |
             | This program is free software; you can            |
             | redistribute it and/or modify it under the terms  |
             | of the GNU General Public License as published by |
             | the Free Software Foundation; either version 2 of |
             | the License, or (at your option) any later version|
             |                                                   |
             | This program is distributed in the hope that it   |
             | will be useful, but WITHOUT ANY WARRANTY; without |
             | even the implied warranty of MERCHANTABILITY or   |
             | FITNESS FOR A PARTICULAR PURPOSE. See the GNU     |
             | General Public License for more details.          |
             |                                                   |
             | You should have received a copy of the GNU General|
             | Public License along with this program; if not,   |
             | write to the Free Software Foundation, Inc.,      |
             | 675 Mass Ave, Cambridge, MA 02139, USA.           |
             |                                                   |
             +---------------------------------------------------+
             |    Execution started on 29Nov2025 at 20:40:58     |
             +---------------------------------------------------+
 
 ******************************************************************************
 * -> Using CODATA 2006 constant values                                       *
 *    (http://physics.nist.gov/cuu/Constants/index.html)                      *
 * -> Using Bohr value from CODATA                                            *
 ******************************************************************************

 Running in parallel on 128 CPUs

                                    ------
                                    SYSTEM
                                    ------

                              Lattice Vectors (Ang)
                    a_1     5.613960   0.000000   0.000000
                    a_2     0.000000   5.613960   0.000000
                    a_3     0.000000   0.000000   7.939340

                   Unit Cell Volume:     250.22058  (Ang^3)

                        Reciprocal-Space Vectors (Ang^-1)
                    b_1     1.119207   0.000000   0.000000
                    b_2     0.000000   1.119207   0.000000
                    b_3     0.000000   0.000000   0.791399
  
 *----------------------------------------------------------------------------*
 |   Site       Fractional Coordinate          Cartesian Coordinate (Ang)     |
 +----------------------------------------------------------------------------+
 | sr   1   0.00000   0.50000   0.25000   |    0.00000   2.80698   1.98483    |
 | sr   2   0.00000   0.50000   0.75000   |    0.00000   2.80698   5.95450    |
 | sr   3   0.50000   0.00000   0.75000   |    2.80698   0.00000   5.95450    |
 | sr   4   0.50000   0.00000   0.25000   |    2.80698   0.00000   1.98483    |
 | mo   1   0.00000   0.00000   0.00000   |    0.00000   0.00000   0.00000    |
 | mo   2   0.00000   0.00000   0.50000   |    0.00000   0.00000   3.96967    |
 | mo   3   0.50000   0.50000   0.50000   |    2.80698   2.80698   3.96967    |
 | mo   4   0.50000   0.50000   0.00000   |    2.80698   2.80698   0.00000    |
 | o    1   0.25000   0.75000  -0.02672   |    1.40349   4.21047  -0.21212    |
 | o    2   0.25000   0.25000   0.02672   |    1.40349   1.40349   0.21212    |
 | o    3   0.75000   0.25000   0.47328   |    4.21047   1.40349   3.75755    |
 | o    4   0.75000   0.75000   0.52672   |    4.21047   4.21047   4.18179    |
 | o    5   0.75000   0.25000   0.02672   |    4.21047   1.40349   0.21212    |
 | o    6   0.75000   0.75000  -0.02672   |    4.21047   4.21047  -0.21212    |
 | o    7   0.25000   0.75000   0.52672   |    1.40349   4.21047   4.18179    |
 | o    8   0.25000   0.25000   0.47328   |    1.40349   1.40349   3.75755    |
 | o    9   0.00000  -0.05344   0.25000   |    0.00000  -0.29999   1.98483    |
 | o   10   0.00000   0.05344   0.75000   |    0.00000   0.29999   5.95450    |
 | o   11   0.50000   0.44656   0.75000   |    2.80698   2.50699   5.95450    |
 | o   12   0.50000   0.55344   0.25000   |    2.80698   3.10697   1.98483    |
 *----------------------------------------------------------------------------*
                                -----------
                                PROJECTIONS
                                -----------
  
 +----------------------------------------------------------------------------+
 |     Frac. Coord.   l mr  r        z-axis               x-axis          Z/a |
 +----------------------------------------------------------------------------+
 |  0.00  0.00  0.00  2  2  1  0.000  0.000  1.000  0.707  0.707  0.000   1.0 |
 |  0.00  0.00  0.00  2  3  1  0.000  0.000  1.000  0.707  0.707  0.000   1.0 |
 |  0.00  0.00  0.00  2  5  1  0.000  0.000  1.000  0.707  0.707  0.000   1.0 |
 |  0.00  0.00  0.50  2  2  1  0.000  0.000  1.000  0.707  0.707  0.000   1.0 |
 |  0.00  0.00  0.50  2  3  1  0.000  0.000  1.000  0.707  0.707  0.000   1.0 |
 |  0.00  0.00  0.50  2  5  1  0.000  0.000  1.000  0.707  0.707  0.000   1.0 |
 |  0.50  0.50  0.50  2  2  1  0.000  0.000  1.000  0.707  0.707  0.000   1.0 |
 |  0.50  0.50  0.50  2  3  1  0.000  0.000  1.000  0.707  0.707  0.000   1.0 |
 |  0.50  0.50  0.50  2  5  1  0.000  0.000  1.000  0.707  0.707  0.000   1.0 |
 |  0.50  0.50  0.00  2  2  1  0.000  0.000  1.000  0.707  0.707  0.000   1.0 |
 |  0.50  0.50  0.00  2  3  1  0.000  0.000  1.000  0.707  0.707  0.000   1.0 |
 |  0.50  0.50  0.00  2  5  1  0.000  0.000  1.000  0.707  0.707  0.000   1.0 |
 |  0.00  0.00  0.00  2  1  1  0.000  0.000  1.000  0.707  0.707  0.000   1.0 |
 |  0.00  0.00  0.00  2  4  1  0.000  0.000  1.000  0.707  0.707  0.000   1.0 |
 |  0.00  0.00  0.50  2  1  1  0.000  0.000  1.000  0.707  0.707  0.000   1.0 |
 |  0.00  0.00  0.50  2  4  1  0.000  0.000  1.000  0.707  0.707  0.000   1.0 |
 |  0.50  0.50  0.50  2  1  1  0.000  0.000  1.000  0.707  0.707  0.000   1.0 |
 |  0.50  0.50  0.50  2  4  1  0.000  0.000  1.000  0.707  0.707  0.000   1.0 |
 |  0.50  0.50  0.00  2  1  1  0.000  0.000  1.000  0.707  0.707  0.000   1.0 |
 |  0.50  0.50  0.00  2  4  1  0.000  0.000  1.000  0.707  0.707  0.000   1.0 |
 |  0.25  0.75 -0.03  1  1  1  0.000  0.000  1.000  1.000  0.000  0.000   1.0 |
 |  0.25  0.75 -0.03  1  2  1  0.000  0.000  1.000  1.000  0.000  0.000   1.0 |
 |  0.25  0.75 -0.03  1  3  1  0.000  0.000  1.000  1.000  0.000  0.000   1.0 |
 |  0.25  0.25  0.03  1  1  1  0.000  0.000  1.000  1.000  0.000  0.000   1.0 |
 |  0.25  0.25  0.03  1  2  1  0.000  0.000  1.000  1.000  0.000  0.000   1.0 |
 |  0.25  0.25  0.03  1  3  1  0.000  0.000  1.000  1.000  0.000  0.000   1.0 |
 |  0.75  0.25  0.47  1  1  1  0.000  0.000  1.000  1.000  0.000  0.000   1.0 |
 |  0.75  0.25  0.47  1  2  1  0.000  0.000  1.000  1.000  0.000  0.000   1.0 |
 |  0.75  0.25  0.47  1  3  1  0.000  0.000  1.000  1.000  0.000  0.000   1.0 |
 |  0.75  0.75  0.53  1  1  1  0.000  0.000  1.000  1.000  0.000  0.000   1.0 |
 |  0.75  0.75  0.53  1  2  1  0.000  0.000  1.000  1.000  0.000  0.000   1.0 |
 |  0.75  0.75  0.53  1  3  1  0.000  0.000  1.000  1.000  0.000  0.000   1.0 |
 |  0.75  0.25  0.03  1  1  1  0.000  0.000  1.000  1.000  0.000  0.000   1.0 |
 |  0.75  0.25  0.03  1  2  1  0.000  0.000  1.000  1.000  0.000  0.000   1.0 |
 |  0.75  0.25  0.03  1  3  1  0.000  0.000  1.000  1.000  0.000  0.000   1.0 |
 |  0.75  0.75 -0.03  1  1  1  0.000  0.000  1.000  1.000  0.000  0.000   1.0 |
 |  0.75  0.75 -0.03  1  2  1  0.000  0.000  1.000  1.000  0.000  0.000   1.0 |
 |  0.75  0.75 -0.03  1  3  1  0.000  0.000  1.000  1.000  0.000  0.000   1.0 |
 |  0.25  0.75  0.53  1  1  1  0.000  0.000  1.000  1.000  0.000  0.000   1.0 |
 |  0.25  0.75  0.53  1  2  1  0.000  0.000  1.000  1.000  0.000  0.000   1.0 |
 |  0.25  0.75  0.53  1  3  1  0.000  0.000  1.000  1.000  0.000  0.000   1.0 |
 |  0.25  0.25  0.47  1  1  1  0.000  0.000  1.000  1.000  0.000  0.000   1.0 |
 |  0.25  0.25  0.47  1  2  1  0.000  0.000  1.000  1.000  0.000  0.000   1.0 |
 |  0.25  0.25  0.47  1  3  1  0.000  0.000  1.000  1.000  0.000  0.000   1.0 |
 |  0.00 -0.05  0.25  1  1  1  0.000  0.000  1.000  1.000  0.000  0.000   1.0 |
 |  0.00 -0.05  0.25  1  2  1  0.000  0.000  1.000  1.000  0.000  0.000   1.0 |
 |  0.00 -0.05  0.25  1  3  1  0.000  0.000  1.000  1.000  0.000  0.000   1.0 |
 |  0.00  0.05  0.75  1  1  1  0.000  0.000  1.000  1.000  0.000  0.000   1.0 |
 |  0.00  0.05  0.75  1  2  1  0.000  0.000  1.000  1.000  0.000  0.000   1.0 |
 |  0.00  0.05  0.75  1  3  1  0.000  0.000  1.000  1.000  0.000  0.000   1.0 |
 |  0.50  0.45  0.75  1  1  1  0.000  0.000  1.000  1.000  0.000  0.000   1.0 |
 |  0.50  0.45  0.75  1  2  1  0.000  0.000  1.000  1.000  0.000  0.000   1.0 |
 |  0.50  0.45  0.75  1  3  1  0.000  0.000  1.000  1.000  0.000  0.000   1.0 |
 |  0.50  0.55  0.25  1  1  1  0.000  0.000  1.000  1.000  0.000  0.000   1.0 |
 |  0.50  0.55  0.25  1  2  1  0.000  0.000  1.000  1.000  0.000  0.000   1.0 |
 |  0.50  0.55  0.25  1  3  1  0.000  0.000  1.000  1.000  0.000  0.000   1.0 |
 +----------------------------------------------------------------------------+
  
                                ------------
                                K-POINT GRID
                                ------------
  
             Grid size =  5 x  5 x  5      Total points =  125
  
 *----------------------------------------------------------------------------*
 | k-point      Fractional Coordinate        Cartesian Coordinate (Ang^-1)    |
 +----------------------------------------------------------------------------+
 |     1    0.00000   0.00000   0.00000   |    0.00000   0.00000   0.00000    |
 |     2    0.00000   0.00000   0.20000   |    0.00000   0.00000   0.15828    |
 |     3    0.00000   0.00000   0.40000   |    0.00000   0.00000   0.31656    |
 |     4    0.00000   0.00000   0.60000   |    0.00000   0.00000   0.47484    |
 |     5    0.00000   0.00000   0.80000   |    0.00000   0.00000   0.63312    |
 |     6    0.00000   0.20000   0.00000   |    0.00000   0.22384   0.00000    |
 |     7    0.00000   0.20000   0.20000   |    0.00000   0.22384   0.15828    |
 |     8    0.00000   0.20000   0.40000   |    0.00000   0.22384   0.31656    |
 |     9    0.00000   0.20000   0.60000   |    0.00000   0.22384   0.47484    |
 |    10    0.00000   0.20000   0.80000   |    0.00000   0.22384   0.63312    |
 |    11    0.00000   0.40000   0.00000   |    0.00000   0.44768   0.00000    |
 |    12    0.00000   0.40000   0.20000   |    0.00000   0.44768   0.15828    |
 |    13    0.00000   0.40000   0.40000   |    0.00000   0.44768   0.31656    |
 |    14    0.00000   0.40000   0.60000   |    0.00000   0.44768   0.47484    |
 |    15    0.00000   0.40000   0.80000   |    0.00000   0.44768   0.63312    |
 |    16    0.00000   0.60000   0.00000   |    0.00000   0.67152   0.00000    |
 |    17    0.00000   0.60000   0.20000   |    0.00000   0.67152   0.15828    |
 |    18    0.00000   0.60000   0.40000   |    0.00000   0.67152   0.31656    |
 |    19    0.00000   0.60000   0.60000   |    0.00000   0.67152   0.47484    |
 |    20    0.00000   0.60000   0.80000   |    0.00000   0.67152   0.63312    |
 |    21    0.00000   0.80000   0.00000   |    0.00000   0.89537   0.00000    |
 |    22    0.00000   0.80000   0.20000   |    0.00000   0.89537   0.15828    |
 |    23    0.00000   0.80000   0.40000   |    0.00000   0.89537   0.31656    |
 |    24    0.00000   0.80000   0.60000   |    0.00000   0.89537   0.47484    |
 |    25    0.00000   0.80000   0.80000   |    0.00000   0.89537   0.63312    |
 |    26    0.20000   0.00000   0.00000   |    0.22384   0.00000   0.00000    |
 |    27    0.20000   0.00000   0.20000   |    0.22384   0.00000   0.15828    |
 |    28    0.20000   0.00000   0.40000   |    0.22384   0.00000   0.31656    |
 |    29    0.20000   0.00000   0.60000   |    0.22384   0.00000   0.47484    |
 |    30    0.20000   0.00000   0.80000   |    0.22384   0.00000   0.63312    |
 |    31    0.20000   0.20000   0.00000   |    0.22384   0.22384   0.00000    |
 |    32    0.20000   0.20000   0.20000   |    0.22384   0.22384   0.15828    |
 |    33    0.20000   0.20000   0.40000   |    0.22384   0.22384   0.31656    |
 |    34    0.20000   0.20000   0.60000   |    0.22384   0.22384   0.47484    |
 |    35    0.20000   0.20000   0.80000   |    0.22384   0.22384   0.63312    |
 |    36    0.20000   0.40000   0.00000   |    0.22384   0.44768   0.00000    |
 |    37    0.20000   0.40000   0.20000   |    0.22384   0.44768   0.15828    |
 |    38    0.20000   0.40000   0.40000   |    0.22384   0.44768   0.31656    |
 |    39    0.20000   0.40000   0.60000   |    0.22384   0.44768   0.47484    |
 |    40    0.20000   0.40000   0.80000   |    0.22384   0.44768   0.63312    |
 |    41    0.20000   0.60000   0.00000   |    0.22384   0.67152   0.00000    |
 |    42    0.20000   0.60000   0.20000   |    0.22384   0.67152   0.15828    |
 |    43    0.20000   0.60000   0.40000   |    0.22384   0.67152   0.31656    |
 |    44    0.20000   0.60000   0.60000   |    0.22384   0.67152   0.47484    |
 |    45    0.20000   0.60000   0.80000   |    0.22384   0.67152   0.63312    |
 |    46    0.20000   0.80000   0.00000   |    0.22384   0.89537   0.00000    |
 |    47    0.20000   0.80000   0.20000   |    0.22384   0.89537   0.15828    |
 |    48    0.20000   0.80000   0.40000   |    0.22384   0.89537   0.31656    |
 |    49    0.20000   0.80000   0.60000   |    0.22384   0.89537   0.47484    |
 |    50    0.20000   0.80000   0.80000   |    0.22384   0.89537   0.63312    |
 |    51    0.40000   0.00000   0.00000   |    0.44768   0.00000   0.00000    |
 |    52    0.40000   0.00000   0.20000   |    0.44768   0.00000   0.15828    |
 |    53    0.40000   0.00000   0.40000   |    0.44768   0.00000   0.31656    |
 |    54    0.40000   0.00000   0.60000   |    0.44768   0.00000   0.47484    |
 |    55    0.40000   0.00000   0.80000   |    0.44768   0.00000   0.63312    |
 |    56    0.40000   0.20000   0.00000   |    0.44768   0.22384   0.00000    |
 |    57    0.40000   0.20000   0.20000   |    0.44768   0.22384   0.15828    |
 |    58    0.40000   0.20000   0.40000   |    0.44768   0.22384   0.31656    |
 |    59    0.40000   0.20000   0.60000   |    0.44768   0.22384   0.47484    |
 |    60    0.40000   0.20000   0.80000   |    0.44768   0.22384   0.63312    |
 |    61    0.40000   0.40000   0.00000   |    0.44768   0.44768   0.00000    |
 |    62    0.40000   0.40000   0.20000   |    0.44768   0.44768   0.15828    |
 |    63    0.40000   0.40000   0.40000   |    0.44768   0.44768   0.31656    |
 |    64    0.40000   0.40000   0.60000   |    0.44768   0.44768   0.47484    |
 |    65    0.40000   0.40000   0.80000   |    0.44768   0.44768   0.63312    |
 |    66    0.40000   0.60000   0.00000   |    0.44768   0.67152   0.00000    |
 |    67    0.40000   0.60000   0.20000   |    0.44768   0.67152   0.15828    |
 |    68    0.40000   0.60000   0.40000   |    0.44768   0.67152   0.31656    |
 |    69    0.40000   0.60000   0.60000   |    0.44768   0.67152   0.47484    |
 |    70    0.40000   0.60000   0.80000   |    0.44768   0.67152   0.63312    |
 |    71    0.40000   0.80000   0.00000   |    0.44768   0.89537   0.00000    |
 |    72    0.40000   0.80000   0.20000   |    0.44768   0.89537   0.15828    |
 |    73    0.40000   0.80000   0.40000   |    0.44768   0.89537   0.31656    |
 |    74    0.40000   0.80000   0.60000   |    0.44768   0.89537   0.47484    |
 |    75    0.40000   0.80000   0.80000   |    0.44768   0.89537   0.63312    |
 |    76    0.60000   0.00000   0.00000   |    0.67152   0.00000   0.00000    |
 |    77    0.60000   0.00000   0.20000   |    0.67152   0.00000   0.15828    |
 |    78    0.60000   0.00000   0.40000   |    0.67152   0.00000   0.31656    |
 |    79    0.60000   0.00000   0.60000   |    0.67152   0.00000   0.47484    |
 |    80    0.60000   0.00000   0.80000   |    0.67152   0.00000   0.63312    |
 |    81    0.60000   0.20000   0.00000   |    0.67152   0.22384   0.00000    |
 |    82    0.60000   0.20000   0.20000   |    0.67152   0.22384   0.15828    |
 |    83    0.60000   0.20000   0.40000   |    0.67152   0.22384   0.31656    |
 |    84    0.60000   0.20000   0.60000   |    0.67152   0.22384   0.47484    |
 |    85    0.60000   0.20000   0.80000   |    0.67152   0.22384   0.63312    |
 |    86    0.60000   0.40000   0.00000   |    0.67152   0.44768   0.00000    |
 |    87    0.60000   0.40000   0.20000   |    0.67152   0.44768   0.15828    |
 |    88    0.60000   0.40000   0.40000   |    0.67152   0.44768   0.31656    |
 |    89    0.60000   0.40000   0.60000   |    0.67152   0.44768   0.47484    |
 |    90    0.60000   0.40000   0.80000   |    0.67152   0.44768   0.63312    |
 |    91    0.60000   0.60000   0.00000   |    0.67152   0.67152   0.00000    |
 |    92    0.60000   0.60000   0.20000   |    0.67152   0.67152   0.15828    |
 |    93    0.60000   0.60000   0.40000   |    0.67152   0.67152   0.31656    |
 |    94    0.60000   0.60000   0.60000   |    0.67152   0.67152   0.47484    |
 |    95    0.60000   0.60000   0.80000   |    0.67152   0.67152   0.63312    |
 |    96    0.60000   0.80000   0.00000   |    0.67152   0.89537   0.00000    |
 |    97    0.60000   0.80000   0.20000   |    0.67152   0.89537   0.15828    |
 |    98    0.60000   0.80000   0.40000   |    0.67152   0.89537   0.31656    |
 |    99    0.60000   0.80000   0.60000   |    0.67152   0.89537   0.47484    |
 |   100    0.60000   0.80000   0.80000   |    0.67152   0.89537   0.63312    |
 |   101    0.80000   0.00000   0.00000   |    0.89537   0.00000   0.00000    |
 |   102    0.80000   0.00000   0.20000   |    0.89537   0.00000   0.15828    |
 |   103    0.80000   0.00000   0.40000   |    0.89537   0.00000   0.31656    |
 |   104    0.80000   0.00000   0.60000   |    0.89537   0.00000   0.47484    |
 |   105    0.80000   0.00000   0.80000   |    0.89537   0.00000   0.63312    |
 |   106    0.80000   0.20000   0.00000   |    0.89537   0.22384   0.00000    |
 |   107    0.80000   0.20000   0.20000   |    0.89537   0.22384   0.15828    |
 |   108    0.80000   0.20000   0.40000   |    0.89537   0.22384   0.31656    |
 |   109    0.80000   0.20000   0.60000   |    0.89537   0.22384   0.47484    |
 |   110    0.80000   0.20000   0.80000   |    0.89537   0.22384   0.63312    |
 |   111    0.80000   0.40000   0.00000   |    0.89537   0.44768   0.00000    |
 |   112    0.80000   0.40000   0.20000   |    0.89537   0.44768   0.15828    |
 |   113    0.80000   0.40000   0.40000   |    0.89537   0.44768   0.31656    |
 |   114    0.80000   0.40000   0.60000   |    0.89537   0.44768   0.47484    |
 |   115    0.80000   0.40000   0.80000   |    0.89537   0.44768   0.63312    |
 |   116    0.80000   0.60000   0.00000   |    0.89537   0.67152   0.00000    |
 |   117    0.80000   0.60000   0.20000   |    0.89537   0.67152   0.15828    |
 |   118    0.80000   0.60000   0.40000   |    0.89537   0.67152   0.31656    |
 |   119    0.80000   0.60000   0.60000   |    0.89537   0.67152   0.47484    |
 |   120    0.80000   0.60000   0.80000   |    0.89537   0.67152   0.63312    |
 |   121    0.80000   0.80000   0.00000   |    0.89537   0.89537   0.00000    |
 |   122    0.80000   0.80000   0.20000   |    0.89537   0.89537   0.15828    |
 |   123    0.80000   0.80000   0.40000   |    0.89537   0.89537   0.31656    |
 |   124    0.80000   0.80000   0.60000   |    0.89537   0.89537   0.47484    |
 |   125    0.80000   0.80000   0.80000   |    0.89537   0.89537   0.63312    |
 *----------------------------------------------------------------------------*
  
  
 *---------------------------------- MAIN ------------------------------------*
 |  Number of Wannier Functions               :                56             |
 |  Number of Objective Wannier Functions     :                56             |
 |  Number of input Bloch states              :                56             |
 |  Output verbosity (1=low, 5=high)          :                 2             |
 |  Timing Level (1=low, 5=high)              :                 1             |
 |  Optimisation (0=memory, 3=speed)          :                 3             |
 |  Length Unit                               :               Ang             |
 |  Post-processing setup (write *.nnkp)      :                 F             |
 |  Using Gamma-only branch of algorithms     :                 F             |
 *----------------------------------------------------------------------------*
 *------------------------------- WANNIERISE ---------------------------------*
 |  Total number of iterations                :             10000             |
 |  Number of CG steps before reset           :                 5             |
 |  Trial step length for line search         :             2.000             |
 |  Convergence tolerence                     :         0.100E-11             |
 |  Convergence window                        :                 5             |
 |  Iterations between writing output         :               200             |
 |  Iterations between backing up to disk     :               100             |
 |  Write r^2_nm to file                      :                 F             |
 |  Write xyz WF centres to file              :                 F             |
 |  Write on-site energies <0n|H|0n> to file  :                 F             |
 |  Use guiding centre to control phases      :                 F             |
 |  Use phases for initial projections        :                 F             |
 *----------------------------------------------------------------------------*
 *-------------------------------- PLOTTING ----------------------------------*
 |  Plotting interpolated bandstructure       :                 T             |
 |   Number of K-path sections                :                 7             |
 |   Divisions along first K-path section     :               100             |
 |   Output format                            :           gnuplot             |
 |   Output mode                              :               s-k             |
 *----------------------------------------------------------------------------*
 |   K-space path sections:                                                   |
 |    From: G       0.000  0.000  0.000     To: X       0.000  0.500  0.000   |
 |    From: X       0.000  0.500  0.000     To: M       0.500  0.500  0.000   |
 |    From: M       0.500  0.500  0.000     To: G       0.000  0.000  0.000   |
 |    From: G       0.000  0.000  0.000     To: Z       0.000  0.000  0.500   |
 |    From: Z       0.000  0.000  0.500     To: R       0.000  0.500  0.500   |
 |    From: R       0.000  0.500  0.500     To: A       0.500  0.500  0.500   |
 |    From: A       0.500  0.500  0.500     To: Z       0.000  0.000  0.500   |
 *----------------------------------------------------------------------------*
 |  Plotting Hamiltonian in WF basis          :                 T             |
 *----------------------------------------------------------------------------*

 *---------------------------------- K-MESH ----------------------------------*
 +----------------------------------------------------------------------------+
 |                    Distance to Nearest-Neighbour Shells                    |
 |                    ------------------------------------                    |
 |          Shell             Distance (Ang^-1)          Multiplicity         |
 |          -----             -----------------          ------------         |
 |             1                   0.158280                      2            |
 |             2                   0.223841                      4            |
 |             3                   0.274149                      8            |
 |             4                   0.316560                      6            |
 |             5                   0.353924                      8            |
 |             6                   0.387705                      8            |
 |             7                   0.447683                     12            |
 |             8                   0.474839                     10            |
 |             9                   0.500525                      8            |
 |            10                   0.524955                     24            |
 |            11                   0.548297                      8            |
 |            12                   0.570686                      8            |
 |            13                   0.592229                     16            |
 |            14                   0.633119                      6            |
 |            15                   0.652604                     16            |
 |            16                   0.671524                     12            |
 |            17                   0.689926                     24            |
 |            18                   0.707849                     24            |
 |            19                   0.725329                     16            |
 |            20                   0.742398                      8            |
 |            21                   0.775409                     24            |
 |            22                   0.791399                     10            |
 |            23                   0.807072                     24            |
 |            24                   0.822446                     32            |
 |            25                   0.852363                     24            |
 |            26                   0.866934                     16            |
 |            27                   0.895366                     12            |
 |            28                   0.909248                     16            |
 |            29                   0.922922                     16            |
 |            30                   0.936396                     48            |
 |            31                   0.949679                     30            |
 |            32                   0.962779                      8            |
 |            33                   0.975702                     24            |
 |            34                   1.001049                     24            |
 |            35                   1.013485                     32            |
 |            36                   1.025770                     16            |
 +----------------------------------------------------------------------------+
 | The b-vectors are chosen automatically                                     |
 | Shell:  1 w_b   19.9580947      (Ang^2)                                    |
 | Shell:  1 w_b   19.9580947      (Ang^2)                                    |
 | Shell:  2 w_b    9.9790432      (Ang^2)                                    |
 | The following shells are used:   1,  2                 |
 +----------------------------------------------------------------------------+
 |                        Shell   # Nearest-Neighbours                        |
 |                        -----   --------------------                        |
 |                          1               2                                 |
 |                          2               4                                 |
 +----------------------------------------------------------------------------+
 | Completeness relation is fully satisfied [Eq. (B1), PRB 56, 12847 (1997)]  |
 +----------------------------------------------------------------------------+
 |                  b_k Vectors (Ang^-1) and Weights (Ang^2)                  |
 |                  ----------------------------------------                  |
 |            No.         b_k(x)      b_k(y)      b_k(z)        w_b           |
 |            ---        --------------------------------     --------        |
 |             1         0.000000    0.000000    0.158280    19.958095        |
 |             2         0.000000    0.000000   -0.158280    19.958095        |
 |             3         0.000000    0.223841    0.000000     9.979043        |
 |             4         0.223841    0.000000    0.000000     9.979043        |
 |             5         0.000000   -0.223841    0.000000     9.979043        |
 |             6        -0.223841    0.000000    0.000000     9.979043        |
 +----------------------------------------------------------------------------+
 |                           b_k Directions (Ang^-1)                          |
 |                           -----------------------                          |
 |            No.           x           y           z                         |
 |            ---        --------------------------------                     |
 |             1         0.000000    0.000000    0.158280                     |
 |             2         0.000000    0.223841    0.000000                     |
 |             3         0.223841    0.000000    0.000000                     |
 +----------------------------------------------------------------------------+
  
 Starting a new Wannier90 calculation ...


 Reading overlaps from smo.mmn    :  Created on 29Nov2025 at 20:40:28

 Reading projections from smo.amn :  Created on 29Nov2025 at 20:40: 9

 *------------------------------- WANNIERISE ---------------------------------*
 +--------------------------------------------------------------------+<-- CONV
 | Iter  Delta Spread     RMS Gradient      Spread (Ang^2)      Time  |<-- CONV
 +--------------------------------------------------------------------+<-- CONV

 ------------------------------------------------------------------------------
 Initial State
  WF centre and spread    1  ( -0.002017,  0.001185,  0.000337 )     3.75179807
  WF centre and spread    2  ( -0.000215, -0.002476, -0.004615 )     3.76909116
  WF centre and spread    3  (  0.000033, -0.000018, -0.000010 )     1.40889486
  WF centre and spread    4  ( -0.002359, -0.001786,  3.970773 )     3.79278552
  WF centre and spread    5  (  0.000109,  0.001744,  3.964892 )     3.85887485
  WF centre and spread    6  (  0.000029,  0.000010,  3.969615 )     1.40630586
  WF centre and spread    7  (  2.808484,  2.806875,  3.970731 )     3.83404187
  WF centre and spread    8  (  2.805204,  2.809615,  3.964243 )     3.82652339
  WF centre and spread    9  (  2.806980,  2.806998,  3.969619 )     1.40704015
  WF centre and spread   10  (  2.805477,  2.809585, -0.001372 )     3.77134439
  WF centre and spread   11  (  2.806528,  2.807198, -0.004538 )     3.80118218
  WF centre and spread   12  (  2.806965,  2.806969, -0.000086 )     1.40911816
  WF centre and spread   13  ( -0.020302, -0.013198, -0.033351 )    29.34597141
  WF centre and spread   14  ( -0.037065,  0.016988, -0.059073 )    35.21454430
  WF centre and spread   15  ( -0.016912, -0.004172,  3.915612 )    30.28595895
  WF centre and spread   16  ( -0.029723,  0.079197,  3.979231 )    36.91406860
  WF centre and spread   17  (  2.788721,  2.815730,  3.927206 )    29.96973969
  WF centre and spread   18  (  2.815973,  2.844227,  3.975995 )    37.16958539
  WF centre and spread   19  (  2.792186,  2.812302, -0.045604 )    29.80361492
  WF centre and spread   20  (  2.736604,  2.891463, -0.003657 )    34.82241255
  WF centre and spread   21  (  1.403480,  4.210494, -0.240560 )     1.16261457
  WF centre and spread   22  (  1.398330,  4.207464, -0.239187 )     6.43660048
  WF centre and spread   23  (  1.401434,  4.208887, -0.230406 )     6.41398402
  WF centre and spread   24  (  1.403414,  1.403526,  0.240713 )     1.16031469
  WF centre and spread   25  (  1.399823,  1.409667,  0.235522 )     6.48213020
  WF centre and spread   26  (  1.396072,  1.412557,  0.224055 )     6.40228966
  WF centre and spread   27  (  4.210474,  1.403552,  3.726112 )     1.16342002
  WF centre and spread   28  (  4.207669,  1.410065,  3.735532 )     6.92851307
  WF centre and spread   29  (  4.209854,  1.409786,  3.747106 )     6.82001352
  WF centre and spread   30  (  4.210456,  4.210496,  4.212905 )     1.16543072
  WF centre and spread   31  (  4.214014,  4.209320,  4.203955 )     6.76253929
  WF centre and spread   32  (  4.212454,  4.210094,  4.195414 )     6.72238852
  WF centre and spread   33  (  4.210441,  1.403475,  0.240610 )     1.16075671
  WF centre and spread   34  (  4.205225,  1.402744,  0.223029 )     6.56934152
  WF centre and spread   35  (  4.207197,  1.404035,  0.211573 )     6.46590719
  WF centre and spread   36  (  4.210365,  4.210478, -0.240387 )     1.16086975
  WF centre and spread   37  (  4.203891,  4.217585, -0.235041 )     6.44646549
  WF centre and spread   38  (  4.203099,  4.218858, -0.224933 )     6.41343223
  WF centre and spread   39  (  1.403511,  4.210559,  4.213057 )     1.16507090
  WF centre and spread   40  (  1.403702,  4.215432,  4.186477 )     6.84927426
  WF centre and spread   41  (  1.406154,  4.216513,  4.176057 )     6.80481450
  WF centre and spread   42  (  1.403486,  1.403470,  3.726185 )     1.16617977
  WF centre and spread   43  (  1.402286,  1.403682,  3.751330 )     6.83470284
  WF centre and spread   44  (  1.399099,  1.404426,  3.761471 )     6.73382821
  WF centre and spread   45  ( -0.003466, -0.278783,  1.986307 )    10.48612263
  WF centre and spread   46  ( -0.000055, -0.303090,  1.984857 )     1.14634054
  WF centre and spread   47  (  0.000022, -0.365255,  1.985103 )     1.23416720
  WF centre and spread   48  ( -0.004367,  0.271434,  5.924230 )    10.45576533
  WF centre and spread   49  ( -0.000133,  0.302858,  5.954494 )     1.14614029
  WF centre and spread   50  ( -0.000025,  0.365302,  5.954379 )     1.22905188
  WF centre and spread   51  (  2.803335,  2.530713,  5.919480 )    10.49596703
  WF centre and spread   52  (  2.807010,  2.504158,  5.954458 )     1.14546826
  WF centre and spread   53  (  2.806913,  2.441969,  5.954347 )     1.22522034
  WF centre and spread   54  (  2.804478,  3.090653,  1.989430 )    10.57777595
  WF centre and spread   55  (  2.807084,  3.110069,  1.984841 )     1.14661979
  WF centre and spread   56  (  2.806995,  3.171665,  1.985085 )     1.23668449
  Sum of centres and spreads (112.018423,112.547294,134.633549 )   466.47910218

      0     0.466E+03     0.0000000000      466.4791021823       0.00  <-- CONV
        O_D=      6.1379964 O_OD=    305.4813769 O_TOT=    466.4791022 <-- SPRD
 ------------------------------------------------------------------------------
 Cycle:      1
  WF centre and spread    1  ( -0.001652, -0.004060, -0.003268 )     2.98091621
  WF centre and spread    2  ( -0.001062, -0.005690, -0.004032 )     2.98577475
  WF centre and spread    3  (  0.000177, -0.000426,  0.000063 )     1.40027599
  WF centre and spread    4  ( -0.002382, -0.005344,  3.970253 )     3.01302904
  WF centre and spread    5  ( -0.001718, -0.002453,  3.962659 )     2.98684796
  WF centre and spread    6  (  0.000103,  0.000007,  3.969912 )     1.41264697
  WF centre and spread    7  (  2.807614,  2.808080,  3.968428 )     2.95866492
  WF centre and spread    8  (  2.802367,  2.813407,  3.962163 )     2.97479413
  WF centre and spread    9  (  2.807230,  2.806977,  3.969369 )     1.41445546
  WF centre and spread   10  (  2.803697,  2.812377, -0.001748 )     2.96678923
  WF centre and spread   11  (  2.806051,  2.809188, -0.004463 )     2.99941314
  WF centre and spread   12  (  2.807053,  2.806914, -0.000252 )     1.40687931
  WF centre and spread   13  ( -0.051595, -0.188324, -0.098957 )    31.19614390
  WF centre and spread   14  ( -0.047279,  0.031737, -0.139456 )    36.35124883
  WF centre and spread   15  ( -0.063807, -0.093813,  3.876099 )    33.64420746
  WF centre and spread   16  ( -0.045640, -0.033583,  4.009025 )    41.65441618
  WF centre and spread   17  (  2.734764,  2.862672,  3.874197 )    31.64194933
  WF centre and spread   18  (  2.753410,  2.882630,  4.044192 )    41.78395153
  WF centre and spread   19  (  2.754365,  2.888763, -0.064377 )    30.86584793
  WF centre and spread   20  (  2.680365,  2.904113, -0.082717 )    36.86674004
  WF centre and spread   21  (  1.403529,  4.210380, -0.242960 )     1.19064873
  WF centre and spread   22  (  1.399868,  4.208696, -0.237053 )     4.63168949
  WF centre and spread   23  (  1.403893,  4.210535, -0.229487 )     4.61547562
  WF centre and spread   24  (  1.403571,  1.403577,  0.244004 )     1.18693237
  WF centre and spread   25  (  1.398589,  1.405970,  0.228378 )     4.51762734
  WF centre and spread   26  (  1.392945,  1.411484,  0.215416 )     4.45440536
  WF centre and spread   27  (  4.210666,  1.403411,  3.720904 )     1.20340309
  WF centre and spread   28  (  4.204852,  1.407979,  3.731367 )     4.63183166
  WF centre and spread   29  (  4.206178,  1.407834,  3.742235 )     4.56383634
  WF centre and spread   30  (  4.210550,  4.210414,  4.217007 )     1.20558969
  WF centre and spread   31  (  4.210302,  4.208677,  4.199407 )     4.64057342
  WF centre and spread   32  (  4.210457,  4.207212,  4.188571 )     4.61686993
  WF centre and spread   33  (  4.210507,  1.403452,  0.243144 )     1.19249663
  WF centre and spread   34  (  4.203548,  1.401927,  0.219517 )     4.57657938
  WF centre and spread   35  (  4.207424,  1.402555,  0.206062 )     4.51779884
  WF centre and spread   36  (  4.210468,  4.210498, -0.242689 )     1.19380763
  WF centre and spread   37  (  4.207023,  4.215716, -0.240303 )     4.54493076
  WF centre and spread   38  (  4.204478,  4.218182, -0.225128 )     4.46827320
  WF centre and spread   39  (  1.403574,  4.210494,  4.216868 )     1.20616670
  WF centre and spread   40  (  1.399928,  4.213267,  4.181134 )     4.57937186
  WF centre and spread   41  (  1.404206,  4.216071,  4.169172 )     4.52589849
  WF centre and spread   42  (  1.403659,  1.403469,  3.720961 )     1.19957107
  WF centre and spread   43  (  1.405698,  1.398975,  3.750706 )     4.62480058
  WF centre and spread   44  (  1.402529,  1.398628,  3.759954 )     4.52552401
  WF centre and spread   45  ( -0.007784, -0.305717,  1.984624 )     8.29151610
  WF centre and spread   46  ( -0.000248, -0.305762,  1.984280 )     1.15947911
  WF centre and spread   47  ( -0.000074, -0.367316,  1.984546 )     1.23252829
  WF centre and spread   48  ( -0.006864,  0.252551,  5.912330 )     8.41566271
  WF centre and spread   49  ( -0.000227,  0.304914,  5.955141 )     1.16443089
  WF centre and spread   50  ( -0.000137,  0.367136,  5.954587 )     1.22929977
  WF centre and spread   51  (  2.794467,  2.540367,  5.906237 )     8.27181405
  WF centre and spread   52  (  2.807192,  2.502125,  5.954969 )     1.16112801
  WF centre and spread   53  (  2.806572,  2.440562,  5.954901 )     1.23152063
  WF centre and spread   54  (  2.799248,  3.108443,  1.990246 )     8.03443893
  WF centre and spread   55  (  2.807264,  3.112735,  1.984250 )     1.15677873
  WF centre and spread   56  (  2.806850,  3.172995,  1.984478 )     1.23627131
  Sum of centres and spreads (111.666762,112.305608,134.294867 )   438.70396303

      1    -0.278E+02    11.3117289091      438.7039630270       0.10  <-- CONV
        O_D=     24.4242643 O_OD=    259.4199698 O_TOT=    438.7039630 <-- SPRD
 Delta: O_D=  0.1828627E+02 O_OD= -0.4606141E+02 O_TOT= -0.2777514E+02 <-- DLTA
 ------------------------------------------------------------------------------
 Cycle:    200
  WF centre and spread    1  (  0.000418,  0.001479,  0.000010 )     1.43870492
  WF centre and spread    2  (  0.000357,  0.001678, -0.001121 )     1.43426636
  WF centre and spread    3  ( -0.000685, -0.000599, -0.000566 )     1.32070702
  WF centre and spread    4  ( -0.001402, -0.000885,  3.970987 )     1.40374733
  WF centre and spread    5  (  0.000107, -0.000854,  3.969183 )     1.40050933
  WF centre and spread    6  (  0.000157,  0.001411,  3.969053 )     1.31687097
  WF centre and spread    7  (  2.807755,  2.807753,  3.966385 )     1.41965846
  WF centre and spread    8  (  2.806744,  2.806912,  3.966996 )     1.42250080
  WF centre and spread    9  (  2.806764,  2.807218,  3.969262 )     1.31723542
  WF centre and spread   10  (  2.807993,  2.804795, -0.000162 )     1.43982363
  WF centre and spread   11  (  2.806852,  2.805144, -0.000962 )     1.43706942
  WF centre and spread   12  (  2.806735,  2.807258, -0.000412 )     1.31727355
  WF centre and spread   13  (  0.013060,  0.015961, -0.206090 )    21.41754671
  WF centre and spread   14  (  0.501678,  0.796103, -0.102366 )    23.38207571
  WF centre and spread   15  ( -0.354027, -0.074430,  3.632237 )    30.97127351
  WF centre and spread   16  (  0.208052, -0.278882,  3.811193 )    21.69208652
  WF centre and spread   17  (  2.624117,  1.849248,  3.046284 )    21.41009267
  WF centre and spread   18  (  2.885283,  2.316880,  4.006050 )    33.98985313
  WF centre and spread   19  (  2.760870,  2.479280, -0.007473 )    18.33522150
  WF centre and spread   20  (  3.135219,  3.501964,  0.053001 )    21.41297862
  WF centre and spread   21  (  1.402991,  4.210546, -0.240939 )     1.05482623
  WF centre and spread   22  (  1.397628,  4.219774, -0.213561 )     1.34245643
  WF centre and spread   23  (  1.396885,  4.218607, -0.212783 )     1.32470471
  WF centre and spread   24  (  1.403142,  1.403115,  0.243818 )     1.05557949
  WF centre and spread   25  (  1.399938,  1.389249,  0.210954 )     1.32618404
  WF centre and spread   26  (  1.387016,  1.400595,  0.213073 )     1.35596372
  WF centre and spread   27  (  4.210357,  1.403607,  3.724716 )     1.08002289
  WF centre and spread   28  (  4.207586,  1.411340,  3.757626 )     1.32959021
  WF centre and spread   29  (  4.199985,  1.407740,  3.758937 )     1.31678933
  WF centre and spread   30  (  4.210618,  4.210123,  4.217133 )     1.07918792
  WF centre and spread   31  (  4.204382,  4.201480,  4.180013 )     1.33745033
  WF centre and spread   32  (  4.203009,  4.199683,  4.178598 )     1.35859564
  WF centre and spread   33  (  4.210290,  1.403216,  0.243703 )     1.04998677
  WF centre and spread   34  (  4.216008,  1.395483,  0.212875 )     1.33607116
  WF centre and spread   35  (  4.226959,  1.402882,  0.213185 )     1.32863119
  WF centre and spread   36  (  4.210795,  4.210193, -0.243796 )     1.07032104
  WF centre and spread   37  (  4.216381,  4.225935, -0.212260 )     1.32133211
  WF centre and spread   38  (  4.224291,  4.214231, -0.211353 )     1.35126395
  WF centre and spread   39  (  1.403485,  4.210673,  4.217509 )     1.09244573
  WF centre and spread   40  (  1.406838,  4.199089,  4.179258 )     1.32270002
  WF centre and spread   41  (  1.411552,  4.202285,  4.177716 )     1.33561243
  WF centre and spread   42  (  1.403693,  1.403466,  3.723866 )     1.08442548
  WF centre and spread   43  (  1.404204,  1.413151,  3.755224 )     1.36018727
  WF centre and spread   44  (  1.411706,  1.401404,  3.756571 )     1.32837700
  WF centre and spread   45  ( -0.001525, -0.268997,  2.015818 )     1.84514151
  WF centre and spread   46  (  0.001680, -0.305441,  1.984207 )     1.04377948
  WF centre and spread   47  (  0.000879, -0.366882,  1.985016 )     1.08195445
  WF centre and spread   48  ( -0.001189,  0.265502,  5.903354 )     1.81343885
  WF centre and spread   49  (  0.001502,  0.305740,  5.954738 )     1.04030010
  WF centre and spread   50  (  0.000309,  0.366627,  5.954789 )     1.07970915
  WF centre and spread   51  (  2.804779,  2.533335,  5.877649 )     1.87904126
  WF centre and spread   52  (  2.811442,  2.503938,  5.954476 )     1.05511647
  WF centre and spread   53  (  2.807984,  2.440722,  5.954390 )     1.07919538
  WF centre and spread   54  (  2.803792,  3.053775,  2.040861 )     1.89871631
  WF centre and spread   55  (  2.811555,  3.115135,  1.984147 )     1.04765782
  WF centre and spread   56  (  2.808754,  3.172570,  1.984373 )     1.08781158
  Sum of centres and spreads (112.835749,111.621325,133.265391 )   255.17406303

    200    -0.323E-01     8.3980337686      255.1740630322      18.50  <-- CONV
        O_D=      4.3026738 O_OD=     96.0116603 O_TOT=    255.1740630 <-- SPRD
 Delta: O_D= -0.1550400E-01 O_OD= -0.1678133E-01 O_TOT= -0.3228533E-01 <-- DLTA
 ------------------------------------------------------------------------------
 Cycle:    400
  WF centre and spread    1  (  0.000393,  0.001379,  0.000136 )     1.42451865
  WF centre and spread    2  (  0.000269,  0.001546, -0.000955 )     1.41988752
  WF centre and spread    3  ( -0.000733, -0.000528, -0.000489 )     1.32066073
  WF centre and spread    4  ( -0.001260, -0.000719,  3.970996 )     1.39188894
  WF centre and spread    5  (  0.000222, -0.000657,  3.969438 )     1.38963455
  WF centre and spread    6  (  0.000056,  0.001467,  3.969043 )     1.31692957
  WF centre and spread    7  (  2.807794,  2.807834,  3.966889 )     1.40555830
  WF centre and spread    8  (  2.806986,  2.807045,  3.967283 )     1.40784284
  WF centre and spread    9  (  2.806742,  2.807308,  3.969297 )     1.31661757
  WF centre and spread   10  (  2.808016,  2.805261, -0.000101 )     1.42764324
  WF centre and spread   11  (  2.806821,  2.805386, -0.000825 )     1.42497833
  WF centre and spread   12  (  2.806743,  2.807250, -0.000350 )     1.31673998
  WF centre and spread   13  (  0.007909,  0.016818, -0.203770 )    21.18934673
  WF centre and spread   14  (  0.524643,  0.844168, -0.129132 )    23.35109808
  WF centre and spread   15  ( -0.364239, -0.084855,  3.708551 )    31.36601675
  WF centre and spread   16  (  0.207444, -0.260229,  3.822611 )    20.28808327
  WF centre and spread   17  (  2.651594,  1.782239,  2.966316 )    21.20730579
  WF centre and spread   18  (  2.897626,  2.214965,  4.033856 )    34.47578606
  WF centre and spread   19  (  2.765842,  2.517070,  0.018103 )    17.93666864
  WF centre and spread   20  (  3.115919,  3.477089,  0.035137 )    20.99915191
  WF centre and spread   21  (  1.402994,  4.210530, -0.240627 )     1.05367624
  WF centre and spread   22  (  1.396895,  4.219953, -0.213427 )     1.32488345
  WF centre and spread   23  (  1.395758,  4.218156, -0.212849 )     1.30830802
  WF centre and spread   24  (  1.403140,  1.403106,  0.243504 )     1.05471576
  WF centre and spread   25  (  1.398695,  1.388909,  0.211202 )     1.31207097
  WF centre and spread   26  (  1.386500,  1.399438,  0.213139 )     1.33894715
  WF centre and spread   27  (  4.210325,  1.403602,  3.724776 )     1.07864755
  WF centre and spread   28  (  4.207474,  1.412112,  3.757836 )     1.31774606
  WF centre and spread   29  (  4.199408,  1.408593,  3.758974 )     1.30156296
  WF centre and spread   30  (  4.210608,  4.210135,  4.216804 )     1.07777880
  WF centre and spread   31  (  4.203672,  4.200578,  4.180118 )     1.32381651
  WF centre and spread   32  (  4.202358,  4.198673,  4.178861 )     1.34212830
  WF centre and spread   33  (  4.210329,  1.403204,  0.243586 )     1.04895946
  WF centre and spread   34  (  4.216559,  1.394800,  0.212728 )     1.32018807
  WF centre and spread   35  (  4.227444,  1.401645,  0.213044 )     1.31224877
  WF centre and spread   36  (  4.210747,  4.210190, -0.243267 )     1.06776540
  WF centre and spread   37  (  4.216592,  4.226046, -0.212054 )     1.30606730
  WF centre and spread   38  (  4.224616,  4.213985, -0.211596 )     1.33492577
  WF centre and spread   39  (  1.403490,  4.210684,  4.216924 )     1.09044249
  WF centre and spread   40  (  1.408668,  4.199090,  4.179601 )     1.30961617
  WF centre and spread   41  (  1.411927,  4.200939,  4.178084 )     1.31614675
  WF centre and spread   42  (  1.403697,  1.403461,  3.724133 )     1.08276924
  WF centre and spread   43  (  1.404771,  1.413681,  3.755440 )     1.34585536
  WF centre and spread   44  (  1.412402,  1.402463,  3.756674 )     1.30846402
  WF centre and spread   45  ( -0.001392, -0.268807,  2.019038 )     1.79229918
  WF centre and spread   46  (  0.001751, -0.305275,  1.984199 )     1.04298380
  WF centre and spread   47  (  0.000779, -0.366809,  1.985029 )     1.07993069
  WF centre and spread   48  ( -0.001244,  0.265513,  5.901354 )     1.76691700
  WF centre and spread   49  (  0.001718,  0.305692,  5.954711 )     1.03938577
  WF centre and spread   50  (  0.000341,  0.366450,  5.954771 )     1.07851950
  WF centre and spread   51  (  2.805112,  2.534883,  5.875064 )     1.83699906
  WF centre and spread   52  (  2.811454,  2.504031,  5.954484 )     1.05378521
  WF centre and spread   53  (  2.808147,  2.440970,  5.954385 )     1.07727447
  WF centre and spread   54  (  2.804363,  3.055459,  2.045099 )     1.85364000
  WF centre and spread   55  (  2.811421,  3.114956,  1.984180 )     1.04656588
  WF centre and spread   56  (  2.808758,  3.172270,  1.984371 )     1.08624615
  Sum of centres and spreads (112.869063,111.523148,133.290326 )   252.80863474

    400     0.112E+00    17.9635919294      252.8086347390      36.62  <-- CONV
        O_D=      4.3207471 O_OD=     93.6281588 O_TOT=    252.8086347 <-- SPRD
 Delta: O_D=  0.1077941E+00 O_OD=  0.4081442E-02 O_TOT=  0.1118755E+00 <-- DLTA
 ------------------------------------------------------------------------------
 Cycle:    600
  WF centre and spread    1  (  0.000367,  0.001289,  0.000209 )     1.41476899
  WF centre and spread    2  (  0.000206,  0.001454, -0.000837 )     1.41019776
  WF centre and spread    3  ( -0.000769, -0.000458, -0.000429 )     1.32043638
  WF centre and spread    4  ( -0.001163, -0.000603,  3.970992 )     1.38445035
  WF centre and spread    5  (  0.000287, -0.000492,  3.969601 )     1.38259691
  WF centre and spread    6  ( -0.000032,  0.001530,  3.969039 )     1.31711648
  WF centre and spread    7  (  2.807806,  2.807872,  3.967269 )     1.39608554
  WF centre and spread    8  (  2.807090,  2.807160,  3.967526 )     1.39811490
  WF centre and spread    9  (  2.806713,  2.807378,  3.969326 )     1.31637608
  WF centre and spread   10  (  2.808000,  2.805582, -0.000065 )     1.41940002
  WF centre and spread   11  (  2.806797,  2.805567, -0.000720 )     1.41685391
  WF centre and spread   12  (  2.806745,  2.807257, -0.000309 )     1.31642520
  WF centre and spread   13  (  0.005844,  0.017939, -0.201715 )    20.98203433
  WF centre and spread   14  (  0.539923,  0.878643, -0.150773 )    23.34164267
  WF centre and spread   15  ( -0.437275, -0.054062,  3.768435 )    31.42132564
  WF centre and spread   16  (  0.198185, -0.243665,  3.833925 )    19.39166226
  WF centre and spread   17  (  2.679322,  1.736424,  2.904686 )    21.03767843
  WF centre and spread   18  (  2.903730,  2.139647,  4.057521 )    34.67655342
  WF centre and spread   19  (  2.769216,  2.547945,  0.037334 )    17.64224069
  WF centre and spread   20  (  3.100702,  3.458728,  0.022896 )    20.75388235
  WF centre and spread   21  (  1.403001,  4.210525, -0.240401 )     1.05302399
  WF centre and spread   22  (  1.396349,  4.220217, -0.213321 )     1.31287218
  WF centre and spread   23  (  1.394893,  4.217946, -0.212882 )     1.29836747
  WF centre and spread   24  (  1.403140,  1.403099,  0.243270 )     1.05414253
  WF centre and spread   25  (  1.397690,  1.388660,  0.211384 )     1.30326858
  WF centre and spread   26  (  1.386088,  1.398516,  0.213212 )     1.32775098
  WF centre and spread   27  (  4.210305,  1.403601,  3.724772 )     1.07752952
  WF centre and spread   28  (  4.207252,  1.412809,  3.757926 )     1.30935103
  WF centre and spread   29  (  4.198994,  1.409364,  3.758953 )     1.29448038
  WF centre and spread   30  (  4.210596,  4.210150,  4.216544 )     1.07658730
  WF centre and spread   31  (  4.203133,  4.199792,  4.180209 )     1.31493774
  WF centre and spread   32  (  4.201704,  4.197967,  4.179049 )     1.33378199
  WF centre and spread   33  (  4.210358,  1.403199,  0.243490 )     1.04826117
  WF centre and spread   34  (  4.217077,  1.394259,  0.212665 )     1.30954864
  WF centre and spread   35  (  4.227832,  1.400599,  0.212988 )     1.30164408
  WF centre and spread   36  (  4.210711,  4.210196, -0.242873 )     1.06587990
  WF centre and spread   37  (  4.216815,  4.226198, -0.211936 )     1.29586134
  WF centre and spread   38  (  4.224893,  4.213925, -0.211777 )     1.32370819
  WF centre and spread   39  (  1.403494,  4.210689,  4.216488 )     1.08879510
  WF centre and spread   40  (  1.410104,  4.198960,  4.179853 )     1.30104768
  WF centre and spread   41  (  1.412295,  4.200102,  4.178364 )     1.30773395
  WF centre and spread   42  (  1.403701,  1.403450,  3.724266 )     1.08141148
  WF centre and spread   43  (  1.405259,  1.414190,  3.755613 )     1.33624069
  WF centre and spread   44  (  1.412897,  1.403255,  3.756777 )     1.29900290
  WF centre and spread   45  ( -0.001287, -0.268679,  2.021484 )     1.75538430
  WF centre and spread   46  (  0.001787, -0.305204,  1.984203 )     1.04237480
  WF centre and spread   47  (  0.000707, -0.366763,  1.985051 )     1.07860483
  WF centre and spread   48  ( -0.001242,  0.265520,  5.899712 )     1.73460609
  WF centre and spread   49  (  0.001893,  0.305633,  5.954696 )     1.03859210
  WF centre and spread   50  (  0.000366,  0.366352,  5.954756 )     1.07755271
  WF centre and spread   51  (  2.805317,  2.535867,  5.872967 )     1.80904856
  WF centre and spread   52  (  2.811430,  2.504065,  5.954496 )     1.05271012
  WF centre and spread   53  (  2.808246,  2.441193,  5.954375 )     1.07584838
  WF centre and spread   54  (  2.804724,  3.056888,  2.048634 )     1.82250654
  WF centre and spread   55  (  2.811273,  3.114790,  1.984215 )     1.04555948
  WF centre and spread   56  (  2.808741,  3.172054,  1.984379 )     1.08504066
  Sum of centres and spreads (112.822227,111.498519,133.315509 )   250.87289971

    600    -0.628E-02     5.1787975119      250.8728997054      55.01  <-- CONV
        O_D=      4.0195667 O_OD=     91.9936041 O_TOT=    250.8728997 <-- SPRD
 Delta: O_D= -0.3321182E-02 O_OD= -0.2957222E-02 O_TOT= -0.6278404E-02 <-- DLTA
 ------------------------------------------------------------------------------
 Cycle:    800
  WF centre and spread    1  (  0.000366,  0.001212,  0.000271 )     1.40703181
  WF centre and spread    2  (  0.000179,  0.001376, -0.000751 )     1.40240370
  WF centre and spread    3  ( -0.000798, -0.000395, -0.000380 )     1.32051059
  WF centre and spread    4  ( -0.001074, -0.000486,  3.970977 )     1.37910797
  WF centre and spread    5  (  0.000351, -0.000364,  3.969723 )     1.37748391
  WF centre and spread    6  ( -0.000110,  0.001588,  3.969042 )     1.31738731
  WF centre and spread    7  (  2.807816,  2.807894,  3.967573 )     1.38905053
  WF centre and spread    8  (  2.807145,  2.807240,  3.967749 )     1.39096018
  WF centre and spread    9  (  2.806686,  2.807441,  3.969357 )     1.31629626
  WF centre and spread   10  (  2.807980,  2.805855, -0.000054 )     1.41266721
  WF centre and spread   11  (  2.806790,  2.805716, -0.000627 )     1.41029482
  WF centre and spread   12  (  2.806753,  2.807269, -0.000277 )     1.31637404
  WF centre and spread   13  (  0.003758,  0.021172, -0.200498 )    20.81483775
  WF centre and spread   14  (  0.551125,  0.909446, -0.169294 )    23.36302938
  WF centre and spread   15  ( -0.474136, -0.046532,  3.825585 )    31.56699967
  WF centre and spread   16  (  0.191915, -0.231697,  3.845013 )    18.72615355
  WF centre and spread   17  (  2.705070,  1.692139,  2.844427 )    20.90193991
  WF centre and spread   18  (  2.913389,  2.087546,  4.075574 )    34.90244011
  WF centre and spread   19  (  2.771930,  2.577550,  0.053353 )    17.40249032
  WF centre and spread   20  (  3.086909,  3.441439,  0.013488 )    20.57047311
  WF centre and spread   21  (  1.403006,  4.210516, -0.240209 )     1.05264157
  WF centre and spread   22  (  1.395840,  4.220565, -0.213211 )     1.30365954
  WF centre and spread   23  (  1.394058,  4.217864, -0.212909 )     1.29092544
  WF centre and spread   24  (  1.403145,  1.403102,  0.243056 )     1.05383017
  WF centre and spread   25  (  1.396719,  1.388445,  0.211544 )     1.29696004
  WF centre and spread   26  (  1.385740,  1.397636,  0.213313 )     1.31916439
  WF centre and spread   27  (  4.210293,  1.403604,  3.724753 )     1.07647724
  WF centre and spread   28  (  4.207103,  1.413405,  3.758012 )     1.30491277
  WF centre and spread   29  (  4.198713,  1.410028,  3.758939 )     1.29039671
  WF centre and spread   30  (  4.210583,  4.210168,  4.216313 )     1.07537701
  WF centre and spread   31  (  4.202623,  4.199084,  4.180293 )     1.31048253
  WF centre and spread   32  (  4.201115,  4.197312,  4.179215 )     1.32889856
  WF centre and spread   33  (  4.210379,  1.403192,  0.243381 )     1.04788743
  WF centre and spread   34  (  4.217619,  1.393794,  0.212644 )     1.30154979
  WF centre and spread   35  (  4.228146,  1.399628,  0.212961 )     1.29344578
  WF centre and spread   36  (  4.210686,  4.210201, -0.242527 )     1.06458309
  WF centre and spread   37  (  4.217083,  4.226372, -0.211850 )     1.28847644
  WF centre and spread   38  (  4.225186,  4.213952, -0.211935 )     1.31509586
  WF centre and spread   39  (  1.403500,  4.210686,  4.216113 )     1.08725985
  WF centre and spread   40  (  1.411366,  4.198790,  4.180057 )     1.29777455
  WF centre and spread   41  (  1.412639,  4.199341,  4.178611 )     1.30320529
  WF centre and spread   42  (  1.403706,  1.403438,  3.724342 )     1.08017456
  WF centre and spread   43  (  1.405693,  1.414648,  3.755742 )     1.33014028
  WF centre and spread   44  (  1.413344,  1.403907,  3.756848 )     1.29252315
  WF centre and spread   45  ( -0.001196, -0.268565,  2.023475 )     1.72714028
  WF centre and spread   46  (  0.001812, -0.305171,  1.984216 )     1.04198471
  WF centre and spread   47  (  0.000641, -0.366716,  1.985077 )     1.07751430
  WF centre and spread   48  ( -0.001213,  0.265539,  5.898285 )     1.70976952
  WF centre and spread   49  (  0.002036,  0.305573,  5.954677 )     1.03823418
  WF centre and spread   50  (  0.000384,  0.366294,  5.954745 )     1.07674777
  WF centre and spread   51  (  2.805488,  2.536647,  5.871064 )     1.78874797
  WF centre and spread   52  (  2.811383,  2.504073,  5.954507 )     1.05185341
  WF centre and spread   53  (  2.808322,  2.441422,  5.954358 )     1.07466725
  WF centre and spread   54  (  2.804986,  3.058226,  2.051875 )     1.79911277
  WF centre and spread   55  (  2.811131,  3.114616,  1.984257 )     1.04463852
  WF centre and spread   56  (  2.808724,  3.171871,  1.984392 )     1.08413300
  Sum of centres and spreads (112.812827,111.468897,133.334669 )   249.60831785

    800    -0.149E-01     5.8867339266      249.6083178522      73.32  <-- CONV
        O_D=      3.9641154 O_OD=     90.7844736 O_TOT=    249.6083179 <-- SPRD
 Delta: O_D= -0.1283856E-01 O_OD= -0.2063582E-02 O_TOT= -0.1490214E-01 <-- DLTA
 ------------------------------------------------------------------------------
 Cycle:   1000
  WF centre and spread    1  (  0.000363,  0.001137,  0.000313 )     1.40041604
  WF centre and spread    2  (  0.000160,  0.001312, -0.000670 )     1.39575400
  WF centre and spread    3  ( -0.000823, -0.000337, -0.000330 )     1.32037391
  WF centre and spread    4  ( -0.001012, -0.000378,  3.970966 )     1.37468670
  WF centre and spread    5  (  0.000399, -0.000241,  3.969825 )     1.37312809
  WF centre and spread    6  ( -0.000175,  0.001627,  3.969048 )     1.31745319
  WF centre and spread    7  (  2.807827,  2.807896,  3.967840 )     1.38331524
  WF centre and spread    8  (  2.807164,  2.807310,  3.967954 )     1.38498670
  WF centre and spread    9  (  2.806672,  2.807497,  3.969384 )     1.31622147
  WF centre and spread   10  (  2.807947,  2.806077, -0.000053 )     1.40683850
  WF centre and spread   11  (  2.806782,  2.805854, -0.000541 )     1.40473813
  WF centre and spread   12  (  2.806753,  2.807284, -0.000244 )     1.31629966
  WF centre and spread   13  (  0.002570,  0.024624, -0.199447 )    20.60627008
  WF centre and spread   14  (  0.560404,  0.942908, -0.186615 )    23.37615916
  WF centre and spread   15  ( -0.504186, -0.022127,  3.894785 )    31.71307258
  WF centre and spread   16  (  0.186628, -0.215492,  3.854751 )    18.14147311
  WF centre and spread   17  (  2.707092,  1.647506,  2.799271 )    20.78821429
  WF centre and spread   18  (  2.919722,  2.033160,  4.090234 )    35.08911737
  WF centre and spread   19  (  2.775104,  2.604488,  0.067145 )    17.18683898
  WF centre and spread   20  (  3.068298,  3.424066,  0.005713 )    20.41682778
  WF centre and spread   21  (  1.403016,  4.210509, -0.240028 )     1.05239381
  WF centre and spread   22  (  1.395354,  4.220947, -0.213126 )     1.29611951
  WF centre and spread   23  (  1.393268,  4.217872, -0.212941 )     1.28501346
  WF centre and spread   24  (  1.403147,  1.403108,  0.242852 )     1.05363261
  WF centre and spread   25  (  1.395789,  1.388276,  0.211699 )     1.29186788
  WF centre and spread   26  (  1.385440,  1.396769,  0.213414 )     1.31195027
  WF centre and spread   27  (  4.210285,  1.403609,  3.724712 )     1.07544096
  WF centre and spread   28  (  4.206971,  1.413968,  3.758083 )     1.30102172
  WF centre and spread   29  (  4.198478,  1.410777,  3.758924 )     1.28572682
  WF centre and spread   30  (  4.210570,  4.210189,  4.216091 )     1.07404264
  WF centre and spread   31  (  4.202048,  4.198414,  4.180353 )     1.30620716
  WF centre and spread   32  (  4.200471,  4.196647,  4.179357 )     1.32280740
  WF centre and spread   33  (  4.210397,  1.403187,  0.243284 )     1.04763467
  WF centre and spread   34  (  4.218162,  1.393390,  0.212644 )     1.29492157
  WF centre and spread   35  (  4.228411,  1.398709,  0.212965 )     1.28653716
  WF centre and spread   36  (  4.210660,  4.210205, -0.242201 )     1.06322007
  WF centre and spread   37  (  4.217390,  4.226560, -0.211800 )     1.28247451
  WF centre and spread   38  (  4.225480,  4.213983, -0.212112 )     1.30756233
  WF centre and spread   39  (  1.403504,  4.210681,  4.215786 )     1.08569393
  WF centre and spread   40  (  1.412533,  4.198615,  4.180249 )     1.29539174
  WF centre and spread   41  (  1.413009,  4.198576,  4.178841 )     1.29873193
  WF centre and spread   42  (  1.403710,  1.403425,  3.724382 )     1.07891128
  WF centre and spread   43  (  1.406127,  1.415062,  3.755839 )     1.32550567
  WF centre and spread   44  (  1.413742,  1.404668,  3.756914 )     1.28607515
  WF centre and spread   45  ( -0.001112, -0.268498,  2.025318 )     1.70246448
  WF centre and spread   46  (  0.001813, -0.305160,  1.984241 )     1.04155823
  WF centre and spread   47  (  0.000583, -0.366660,  1.985103 )     1.07653858
  WF centre and spread   48  ( -0.001189,  0.265599,  5.896896 )     1.68678814
  WF centre and spread   49  (  0.002155,  0.305514,  5.954656 )     1.03799337
  WF centre and spread   50  (  0.000397,  0.366264,  5.954736 )     1.07595844
  WF centre and spread   51  (  2.805677,  2.537259,  5.869332 )     1.77256773
  WF centre and spread   52  (  2.811304,  2.504059,  5.954523 )     1.05084641
  WF centre and spread   53  (  2.808378,  2.441656,  5.954348 )     1.07357939
  WF centre and spread   54  (  2.805210,  3.059463,  2.054959 )     1.77946459
  WF centre and spread   55  (  2.810986,  3.114446,  1.984305 )     1.04374206
  WF centre and spread   56  (  2.808698,  3.171706,  1.984407 )     1.08329421
  Sum of centres and spreads (112.778552,111.457966,133.376338 )   248.44586490

   1000     0.111E-01    10.1325710084      248.4458649023      91.59  <-- CONV
        O_D=      4.0089038 O_OD=     89.5772322 O_TOT=    248.4458649 <-- SPRD
 Delta: O_D=  0.2086044E-01 O_OD= -0.9770553E-02 O_TOT=  0.1108988E-01 <-- DLTA
 ------------------------------------------------------------------------------
 Cycle:   1200
  WF centre and spread    1  (  0.000360,  0.001059,  0.000352 )     1.39443680
  WF centre and spread    2  (  0.000151,  0.001260, -0.000596 )     1.38987169
  WF centre and spread    3  ( -0.000846, -0.000282, -0.000289 )     1.32037974
  WF centre and spread    4  ( -0.000940, -0.000284,  3.970947 )     1.37104178
  WF centre and spread    5  (  0.000439, -0.000142,  3.969909 )     1.36937520
  WF centre and spread    6  ( -0.000231,  0.001660,  3.969065 )     1.31765196
  WF centre and spread    7  (  2.807832,  2.807888,  3.968102 )     1.37757009
  WF centre and spread    8  (  2.807161,  2.807378,  3.968177 )     1.37913043
  WF centre and spread    9  (  2.806661,  2.807542,  3.969421 )     1.31606963
  WF centre and spread   10  (  2.807900,  2.806268, -0.000065 )     1.40158278
  WF centre and spread   11  (  2.806783,  2.805981, -0.000459 )     1.39970827
  WF centre and spread   12  (  2.806761,  2.807297, -0.000219 )     1.31622079
  WF centre and spread   13  (  0.000983,  0.028043, -0.199796 )    20.38571214
  WF centre and spread   14  (  0.568430,  0.960989, -0.202659 )    23.38617619
  WF centre and spread   15  ( -0.538458, -0.010301,  3.950798 )    31.84422447
  WF centre and spread   16  (  0.183874, -0.203895,  3.864906 )    17.62702744
  WF centre and spread   17  (  2.761479,  1.607876,  2.755577 )    20.54610259
  WF centre and spread   18  (  2.937556,  2.022807,  4.105789 )    35.24487098
  WF centre and spread   19  (  2.779730,  2.632416,  0.077663 )    16.99250491
  WF centre and spread   20  (  3.052024,  3.405759, -0.000253 )    20.31021785
  WF centre and spread   21  (  1.403026,  4.210503, -0.239854 )     1.05216524
  WF centre and spread   22  (  1.394922,  4.221340, -0.213056 )     1.28959767
  WF centre and spread   23  (  1.392488,  4.217971, -0.212962 )     1.28016258
  WF centre and spread   24  (  1.403145,  1.403116,  0.242662 )     1.05352232
  WF centre and spread   25  (  1.394923,  1.388114,  0.211853 )     1.28821688
  WF centre and spread   26  (  1.385209,  1.395934,  0.213521 )     1.30606523
  WF centre and spread   27  (  4.210282,  1.403611,  3.724639 )     1.07437230
  WF centre and spread   28  (  4.206730,  1.414531,  3.758141 )     1.29716970
  WF centre and spread   29  (  4.198265,  1.411421,  3.758890 )     1.28260631
  WF centre and spread   30  (  4.210559,  4.210208,  4.215864 )     1.07268167
  WF centre and spread   31  (  4.201444,  4.197694,  4.180431 )     1.30258173
  WF centre and spread   32  (  4.199814,  4.196016,  4.179521 )     1.31871602
  WF centre and spread   33  (  4.210412,  1.403180,  0.243182 )     1.04744370
  WF centre and spread   34  (  4.218700,  1.393019,  0.212652 )     1.28934681
  WF centre and spread   35  (  4.228617,  1.397867,  0.212990 )     1.28076360
  WF centre and spread   36  (  4.210633,  4.210211, -0.241866 )     1.06212266
  WF centre and spread   37  (  4.217710,  4.226743, -0.211811 )     1.27785360
  WF centre and spread   38  (  4.225780,  4.214065, -0.212290 )     1.30118203
  WF centre and spread   39  (  1.403508,  4.210676,  4.215480 )     1.08399870
  WF centre and spread   40  (  1.413714,  4.198441,  4.180417 )     1.29424683
  WF centre and spread   41  (  1.413394,  4.197806,  4.179049 )     1.29561076
  WF centre and spread   42  (  1.403710,  1.403410,  3.724366 )     1.07761931
  WF centre and spread   43  (  1.406633,  1.415409,  3.755964 )     1.32181603
  WF centre and spread   44  (  1.414128,  1.405335,  3.756975 )     1.28210753
  WF centre and spread   45  ( -0.001068, -0.268477,  2.026889 )     1.68173379
  WF centre and spread   46  (  0.001814, -0.305175,  1.984265 )     1.04097663
  WF centre and spread   47  (  0.000530, -0.366589,  1.985129 )     1.07572127
  WF centre and spread   48  ( -0.001136,  0.265664,  5.895583 )     1.66683538
  WF centre and spread   49  (  0.002260,  0.305445,  5.954644 )     1.03778353
  WF centre and spread   50  (  0.000406,  0.366268,  5.954727 )     1.07521691
  WF centre and spread   51  (  2.805882,  2.537831,  5.867626 )     1.75667860
  WF centre and spread   52  (  2.811210,  2.504035,  5.954539 )     1.04992440
  WF centre and spread   53  (  2.808414,  2.441903,  5.954335 )     1.07260719
  WF centre and spread   54  (  2.805391,  3.060802,  2.058135 )     1.75994839
  WF centre and spread   55  (  2.810817,  3.114275,  1.984341 )     1.04278426
  WF centre and spread   56  (  2.808668,  3.171572,  1.984422 )     1.08253287
  Sum of centres and spreads (112.808579,111.463493,133.405764 )   247.26458817

   1200    -0.840E-03     2.6712650864      247.2645881696     110.11  <-- CONV
        O_D=      3.9153670 O_OD=     88.4894923 O_TOT=    247.2645882 <-- SPRD
 Delta: O_D= -0.1692663E-04 O_OD= -0.8226726E-03 O_TOT= -0.8395992E-03 <-- DLTA
 ------------------------------------------------------------------------------
 Cycle:   1400
  WF centre and spread    1  (  0.000358,  0.000984,  0.000376 )     1.38949843
  WF centre and spread    2  (  0.000145,  0.001214, -0.000530 )     1.38493324
  WF centre and spread    3  ( -0.000861, -0.000231, -0.000248 )     1.32041891
  WF centre and spread    4  ( -0.000889, -0.000182,  3.970938 )     1.36812419
  WF centre and spread    5  (  0.000464, -0.000059,  3.969975 )     1.36645418
  WF centre and spread    6  ( -0.000272,  0.001682,  3.969076 )     1.31771771
  WF centre and spread    7  (  2.807825,  2.807873,  3.968300 )     1.37326894
  WF centre and spread    8  (  2.807136,  2.807423,  3.968371 )     1.37464277
  WF centre and spread    9  (  2.806653,  2.807582,  3.969452 )     1.31592784
  WF centre and spread   10  (  2.807855,  2.806420, -0.000089 )     1.39709144
  WF centre and spread   11  (  2.806783,  2.806092, -0.000388 )     1.39538813
  WF centre and spread   12  (  2.806756,  2.807313, -0.000195 )     1.31617318
  WF centre and spread   13  (  0.000416,  0.032078, -0.200176 )    20.16627787
  WF centre and spread   14  (  0.573950,  0.981872, -0.217468 )    23.39434689
  WF centre and spread   15  ( -0.571723, -0.028235,  4.038567 )    32.19185953
  WF centre and spread   16  (  0.183375, -0.191899,  3.874303 )    17.23792378
  WF centre and spread   17  (  2.758741,  1.564661,  2.709811 )    20.54295651
  WF centre and spread   18  (  2.942187,  1.970860,  4.119261 )    35.33836999
  WF centre and spread   19  (  2.784120,  2.657072,  0.084075 )    16.83208775
  WF centre and spread   20  (  3.032977,  3.389128, -0.004446 )    20.22357422
  WF centre and spread   21  (  1.403039,  4.210495, -0.239698 )     1.05193095
  WF centre and spread   22  (  1.394512,  4.221713, -0.213002 )     1.28479940
  WF centre and spread   23  (  1.391786,  4.218114, -0.213009 )     1.27618051
  WF centre and spread   24  (  1.403140,  1.403125,  0.242495 )     1.05353163
  WF centre and spread   25  (  1.394117,  1.388014,  0.212002 )     1.28520098
  WF centre and spread   26  (  1.385038,  1.395200,  0.213639 )     1.30099447
  WF centre and spread   27  (  4.210282,  1.403611,  3.724538 )     1.07333060
  WF centre and spread   28  (  4.206528,  1.415110,  3.758198 )     1.29424720
  WF centre and spread   29  (  4.198084,  1.412145,  3.758858 )     1.27919441
  WF centre and spread   30  (  4.210549,  4.210230,  4.215644 )     1.07127088
  WF centre and spread   31  (  4.200747,  4.197016,  4.180520 )     1.29960348
  WF centre and spread   32  (  4.199093,  4.195335,  4.179670 )     1.31394579
  WF centre and spread   33  (  4.210426,  1.403177,  0.243082 )     1.04730729
  WF centre and spread   34  (  4.219198,  1.392715,  0.212674 )     1.28479927
  WF centre and spread   35  (  4.228764,  1.397158,  0.213036 )     1.27633675
  WF centre and spread   36  (  4.210606,  4.210217, -0.241538 )     1.06099630
  WF centre and spread   37  (  4.218008,  4.226899, -0.211840 )     1.27376742
  WF centre and spread   38  (  4.226068,  4.214224, -0.212469 )     1.29563264
  WF centre and spread   39  (  1.403513,  4.210668,  4.215204 )     1.08232569
  WF centre and spread   40  (  1.414758,  4.198065,  4.180560 )     1.29155295
  WF centre and spread   41  (  1.413807,  4.197073,  4.179229 )     1.29307360
  WF centre and spread   42  (  1.403709,  1.403398,  3.724328 )     1.07645093
  WF centre and spread   43  (  1.407111,  1.415920,  3.756080 )     1.31751004
  WF centre and spread   44  (  1.414509,  1.406118,  3.757064 )     1.27761390
  WF centre and spread   45  ( -0.001007, -0.268495,  2.028242 )     1.66486246
  WF centre and spread   46  (  0.001815, -0.305205,  1.984291 )     1.04058256
  WF centre and spread   47  (  0.000486, -0.366536,  1.985155 )     1.07496731
  WF centre and spread   48  ( -0.001079,  0.265765,  5.894359 )     1.64917807
  WF centre and spread   49  (  0.002336,  0.305375,  5.954628 )     1.03777645
  WF centre and spread   50  (  0.000407,  0.366296,  5.954721 )     1.07445575
  WF centre and spread   51  (  2.806062,  2.538276,  5.866091 )     1.74547677
  WF centre and spread   52  (  2.811106,  2.503992,  5.954557 )     1.04905860
  WF centre and spread   53  (  2.808432,  2.442136,  5.954325 )     1.07183092
  WF centre and spread   54  (  2.805518,  3.061983,  2.061004 )     1.74520055
  WF centre and spread   55  (  2.810664,  3.114113,  1.984384 )     1.04209500
  WF centre and spread   56  (  2.808636,  3.171461,  1.984435 )     1.08185861
  Sum of centres and spreads (112.766763,111.396547,133.460420 )   246.68597560

   1400    -0.546E-01     7.8055416577      246.6859756033     128.55  <-- CONV
        O_D=      4.2749795 O_OD=     87.5512672 O_TOT=    246.6859756 <-- SPRD
 Delta: O_D= -0.6157434E-01 O_OD=  0.6978161E-02 O_TOT= -0.5459618E-01 <-- DLTA
 ------------------------------------------------------------------------------
 Cycle:   1600
  WF centre and spread    1  (  0.000348,  0.000910,  0.000388 )     1.38500806
  WF centre and spread    2  (  0.000142,  0.001180, -0.000481 )     1.38071090
  WF centre and spread    3  ( -0.000883, -0.000170, -0.000212 )     1.32031801
  WF centre and spread    4  ( -0.000845, -0.000091,  3.970925 )     1.36560420
  WF centre and spread    5  (  0.000497,  0.000024,  3.970036 )     1.36375853
  WF centre and spread    6  ( -0.000312,  0.001697,  3.969086 )     1.31776980
  WF centre and spread    7  (  2.807834,  2.807847,  3.968499 )     1.36933978
  WF centre and spread    8  (  2.807094,  2.807466,  3.968569 )     1.37065027
  WF centre and spread    9  (  2.806652,  2.807618,  3.969479 )     1.31584434
  WF centre and spread   10  (  2.807802,  2.806542, -0.000119 )     1.39294302
  WF centre and spread   11  (  2.806786,  2.806196, -0.000328 )     1.39151549
  WF centre and spread   12  (  2.806744,  2.807333, -0.000175 )     1.31610865
  WF centre and spread   13  (  0.001825,  0.038261, -0.202667 )    19.89503117
  WF centre and spread   14  (  0.582573,  1.005919, -0.232961 )    23.38274107
  WF centre and spread   15  ( -0.608210,  0.029818,  4.077360 )    32.01878921
  WF centre and spread   16  (  0.185303, -0.180409,  3.883250 )    16.86814360
  WF centre and spread   17  (  2.843261,  1.523557,  2.662549 )    20.21237781
  WF centre and spread   18  (  2.947518,  1.942469,  4.133132 )    35.46905868
  WF centre and spread   19  (  2.790027,  2.682365,  0.087330 )    16.68580332
  WF centre and spread   20  (  3.013914,  3.372002, -0.006786 )    20.16856848
  WF centre and spread   21  (  1.403057,  4.210495, -0.239556 )     1.05189316
  WF centre and spread   22  (  1.394139,  4.222104, -0.212976 )     1.28036439
  WF centre and spread   23  (  1.391141,  4.218326, -0.213057 )     1.27263999
  WF centre and spread   24  (  1.403128,  1.403140,  0.242338 )     1.05345008
  WF centre and spread   25  (  1.393442,  1.387984,  0.212159 )     1.28260974
  WF centre and spread   26  (  1.384928,  1.394527,  0.213754 )     1.29650002
  WF centre and spread   27  (  4.210290,  1.403613,  3.724414 )     1.07228709
  WF centre and spread   28  (  4.206216,  1.415764,  3.758224 )     1.29077086
  WF centre and spread   29  (  4.197884,  1.412974,  3.758788 )     1.27605691
  WF centre and spread   30  (  4.210540,  4.210256,  4.215417 )     1.06988738
  WF centre and spread   31  (  4.200032,  4.196346,  4.180605 )     1.29678523
  WF centre and spread   32  (  4.198336,  4.194724,  4.179823 )     1.30927309
[...]
  WF centre and spread   13  ( -0.007468, -0.014456, -0.088434 )    15.24100324
  WF centre and spread   14  (  0.418314,  1.181074,  0.106016 )    20.25245278
  WF centre and spread   15  ( -0.584435,  0.517375,  5.384974 )    26.86839607
  WF centre and spread   16  (  0.089464, -0.173942,  3.955973 )    13.61238349
  WF centre and spread   17  (  3.481983,  0.880965,  2.213374 )    17.65750464
  WF centre and spread   18  (  3.017984,  1.132768,  4.030541 )    33.74095387
  WF centre and spread   19  (  2.798314,  2.852017,  0.006018 )    16.40149052
  WF centre and spread   20  (  2.862063,  3.312920, -0.024589 )    21.77243908
  WF centre and spread   21  (  1.403340,  4.210407, -0.240019 )     1.04633953
  WF centre and spread   22  (  1.396748,  4.215223, -0.214315 )     1.25517805
  WF centre and spread   23  (  1.397029,  4.212829, -0.215551 )     1.25351917
  WF centre and spread   24  (  1.403358,  1.403206,  0.242165 )     1.04811752
  WF centre and spread   25  (  1.393752,  1.398792,  0.214399 )     1.24989631
  WF centre and spread   26  (  1.394524,  1.398373,  0.215376 )     1.24319041
  WF centre and spread   27  (  4.210227,  1.403587,  3.721963 )     1.06649607
  WF centre and spread   28  (  4.200261,  1.423338,  3.756150 )     1.28473852
  WF centre and spread   29  (  4.194362,  1.426475,  3.756566 )     1.26702409
  WF centre and spread   30  (  4.210617,  4.210606,  4.211061 )     1.06191576
  WF centre and spread   31  (  4.190985,  4.190841,  4.182884 )     1.27559283
  WF centre and spread   32  (  4.186392,  4.178614,  4.182050 )     1.28865690
  WF centre and spread   33  (  4.210491,  1.403085,  0.240777 )     1.04758538
  WF centre and spread   34  (  4.219647,  1.400859,  0.213815 )     1.23949966
  WF centre and spread   35  (  4.220318,  1.402765,  0.215530 )     1.23593508
  WF centre and spread   36  (  4.210640,  4.210450, -0.239146 )     1.04567748
  WF centre and spread   37  (  4.216193,  4.217182, -0.213665 )     1.24311308
  WF centre and spread   38  (  4.216836,  4.211536, -0.215483 )     1.24539210
  WF centre and spread   39  (  1.403305,  4.210679,  4.211336 )     1.06432092
  WF centre and spread   40  (  1.426182,  4.186059,  4.182666 )     1.29536834
  WF centre and spread   41  (  1.431505,  4.174692,  4.181312 )     1.29096795
  WF centre and spread   42  (  1.403693,  1.403595,  3.721593 )     1.06763295
  WF centre and spread   43  (  1.416555,  1.421256,  3.755761 )     1.28027322
  WF centre and spread   44  (  1.421170,  1.424190,  3.756897 )     1.25646021
  WF centre and spread   45  ( -0.000525, -0.273395,  2.053321 )     1.57311971
  WF centre and spread   46  (  0.001066, -0.306100,  1.984421 )     1.03713786
  WF centre and spread   47  ( -0.000244, -0.364951,  1.984900 )     1.06764027
  WF centre and spread   48  ( -0.000307,  0.269027,  5.860490 )     1.56324907
  WF centre and spread   49  (  0.001131,  0.305732,  5.954826 )     1.03552759
  WF centre and spread   50  ( -0.000382,  0.368074,  5.954961 )     1.07020454
  WF centre and spread   51  (  2.806377,  2.536816,  5.855274 )     1.62303641
  WF centre and spread   52  (  2.807983,  2.503160,  5.954859 )     1.03860836
  WF centre and spread   53  (  2.807372,  2.442486,  5.954162 )     1.06758240
  WF centre and spread   54  (  2.806430,  3.077819,  2.088550 )     1.63135569
  WF centre and spread   55  (  2.807850,  3.111439,  1.984501 )     1.03204127
  WF centre and spread   56  (  2.807223,  3.171774,  1.984459 )     1.07091276
  Sum of centres and spreads (113.139987,110.716024,134.642439 )   225.12594471

   9600    -0.346E-02     3.2762714590      225.1259447084     877.68  <-- CONV
        O_D=      1.5563586 O_OD=     68.7098572 O_TOT=    225.1259447 <-- SPRD
 Delta: O_D= -0.1356549E-02 O_OD= -0.2103153E-02 O_TOT= -0.3459702E-02 <-- DLTA
 ------------------------------------------------------------------------------
 Cycle:   9800
  WF centre and spread    1  (  0.000192, -0.000038,  0.000449 )     1.35664863
  WF centre and spread    2  (  0.000133,  0.000208,  0.000155 )     1.35681915
  WF centre and spread    3  ( -0.001018,  0.001321,  0.000743 )     1.31962169
  WF centre and spread    4  (  0.000066,  0.000250,  3.969812 )     1.35257369
  WF centre and spread    5  (  0.000137,  0.000447,  3.970077 )     1.35257327
  WF centre and spread    6  ( -0.000583,  0.001902,  3.968976 )     1.32089288
  WF centre and spread    7  (  2.807271,  2.807004,  3.969912 )     1.35374266
  WF centre and spread    8  (  2.806880,  2.806659,  3.969897 )     1.35325310
  WF centre and spread    9  (  2.807176,  2.807949,  3.969867 )     1.31714135
  WF centre and spread   10  (  2.807182,  2.807051, -0.000189 )     1.35680858
  WF centre and spread   11  (  2.806978,  2.806651, -0.000048 )     1.35680804
  WF centre and spread   12  (  2.807323,  2.807352,  0.000023 )     1.31874072
  WF centre and spread   13  ( -0.006460, -0.015965, -0.085748 )    15.21544533
  WF centre and spread   14  (  0.414404,  1.178115,  0.102553 )    20.16625493
  WF centre and spread   15  ( -0.581708,  0.522073,  5.398712 )    26.83772748
  WF centre and spread   16  (  0.085045, -0.172153,  3.957511 )    13.57110893
  WF centre and spread   17  (  3.469579,  0.872280,  2.215425 )    17.63667663
  WF centre and spread   18  (  3.020860,  1.116779,  4.020335 )    33.72323701
  WF centre and spread   19  (  2.796832,  2.851318,  0.005116 )    16.40346751
  WF centre and spread   20  (  2.851734,  3.315961, -0.026116 )    21.78811096
  WF centre and spread   21  (  1.403337,  4.210413, -0.240009 )     1.04613574
  WF centre and spread   22  (  1.396768,  4.215203, -0.214311 )     1.25490562
  WF centre and spread   23  (  1.397123,  4.212797, -0.215554 )     1.25329163
  WF centre and spread   24  (  1.403363,  1.403198,  0.242119 )     1.04777063
  WF centre and spread   25  (  1.393774,  1.398829,  0.214423 )     1.25068334
  WF centre and spread   26  (  1.394567,  1.398442,  0.215396 )     1.24321068
  WF centre and spread   27  (  4.210211,  1.403579,  3.722002 )     1.06665721
  WF centre and spread   28  (  4.200054,  1.423477,  3.756110 )     1.28401112
  WF centre and spread   29  (  4.194281,  1.426745,  3.756524 )     1.26712222
  WF centre and spread   30  (  4.210626,  4.210609,  4.211082 )     1.06160460
  WF centre and spread   31  (  4.191046,  4.190825,  4.182899 )     1.27544819
  WF centre and spread   32  (  4.186350,  4.178555,  4.182045 )     1.28836840
  WF centre and spread   33  (  4.210478,  1.403080,  0.240791 )     1.04731853
  WF centre and spread   34  (  4.219774,  1.400891,  0.213832 )     1.24017313
  WF centre and spread   35  (  4.220273,  1.402817,  0.215559 )     1.23642688
  WF centre and spread   36  (  4.210639,  4.210448, -0.239182 )     1.04547492
  WF centre and spread   37  (  4.216222,  4.217068, -0.213666 )     1.24308803
  WF centre and spread   38  (  4.216778,  4.211543, -0.215483 )     1.24507464
  WF centre and spread   39  (  1.403296,  4.210680,  4.211339 )     1.06450855
  WF centre and spread   40  (  1.426305,  4.185850,  4.182678 )     1.29451795
  WF centre and spread   41  (  1.431730,  4.174554,  4.181314 )     1.29116110
  WF centre and spread   42  (  1.403694,  1.403589,  3.721597 )     1.06755288
  WF centre and spread   43  (  1.416620,  1.421357,  3.755761 )     1.27897531
  WF centre and spread   44  (  1.421285,  1.424482,  3.756883 )     1.25631040
  WF centre and spread   45  ( -0.000489, -0.273426,  2.053721 )     1.57176614
  WF centre and spread   46  (  0.001081, -0.306124,  1.984438 )     1.03666065
  WF centre and spread   47  ( -0.000246, -0.364948,  1.984894 )     1.06760296
  WF centre and spread   48  ( -0.000276,  0.269073,  5.860440 )     1.56382514
  WF centre and spread   49  (  0.001092,  0.305736,  5.954818 )     1.03509392
  WF centre and spread   50  ( -0.000372,  0.368053,  5.954969 )     1.07005669
  WF centre and spread   51  (  2.806376,  2.536736,  5.855279 )     1.62194230
  WF centre and spread   52  (  2.807962,  2.503188,  5.954857 )     1.03846850
  WF centre and spread   53  (  2.807372,  2.442440,  5.954162 )     1.06753906
  WF centre and spread   54  (  2.806436,  3.077839,  2.088510 )     1.62991243
  WF centre and spread   55  (  2.807820,  3.111434,  1.984507 )     1.03172966
  WF centre and spread   56  (  2.807230,  3.171752,  1.984452 )     1.07101046
  Sum of centres and spreads (113.114600,110.695953,134.646656 )   224.91305217

   9800    -0.971E-02     4.8507429784      224.9130521666     896.10  <-- CONV
        O_D=      1.5071193 O_OD=     68.5462040 O_TOT=    224.9130522 <-- SPRD
 Delta: O_D= -0.8385003E-02 O_OD= -0.1320806E-02 O_TOT= -0.9705810E-02 <-- DLTA
 ------------------------------------------------------------------------------
 Cycle:  10000
  WF centre and spread    1  (  0.000196, -0.000015,  0.000465 )     1.35746748
  WF centre and spread    2  (  0.000113,  0.000215,  0.000204 )     1.35771813
  WF centre and spread    3  ( -0.000993,  0.001311,  0.000737 )     1.31980377
  WF centre and spread    4  (  0.000086,  0.000200,  3.969767 )     1.35383411
  WF centre and spread    5  (  0.000254,  0.000446,  3.970156 )     1.35455777
  WF centre and spread    6  ( -0.000576,  0.001912,  3.968972 )     1.32183547
  WF centre and spread    7  (  2.807273,  2.807004,  3.969915 )     1.35468323
  WF centre and spread    8  (  2.806789,  2.806651,  3.969992 )     1.35525397
  WF centre and spread    9  (  2.807239,  2.807975,  3.969874 )     1.31828536
  WF centre and spread   10  (  2.807158,  2.807040, -0.000202 )     1.35713022
  WF centre and spread   11  (  2.806891,  2.806658, -0.000129 )     1.35728012
  WF centre and spread   12  (  2.807329,  2.807385,  0.000067 )     1.31941385
  WF centre and spread   13  ( -0.006404, -0.017387, -0.089483 )    15.27056488
  WF centre and spread   14  (  0.461040,  1.316644,  0.288662 )    20.82099173
  WF centre and spread   15  ( -0.561503,  0.549748,  5.396794 )    26.99513736
  WF centre and spread   16  (  0.083586, -0.169177,  3.956262 )    13.53456479
  WF centre and spread   17  (  3.441281,  0.850975,  2.230592 )    17.76125511
  WF centre and spread   18  (  2.986383,  1.066967,  4.011112 )    33.80264793
  WF centre and spread   19  (  2.800183,  2.852447, -0.004861 )    16.42635694
  WF centre and spread   20  (  2.815603,  3.292828, -0.036758 )    21.52071103
  WF centre and spread   21  (  1.403327,  4.210427, -0.240230 )     1.04606687
  WF centre and spread   22  (  1.396559,  4.215120, -0.214340 )     1.25731600
  WF centre and spread   23  (  1.397195,  4.212682, -0.215525 )     1.25289211
  WF centre and spread   24  (  1.403335,  1.403218,  0.242246 )     1.04940159
  WF centre and spread   25  (  1.393693,  1.399138,  0.214471 )     1.25088366
  WF centre and spread   26  (  1.394616,  1.398597,  0.215488 )     1.24304987
  WF centre and spread   27  (  4.210156,  1.403541,  3.722282 )     1.07761514
  WF centre and spread   28  (  4.199937,  1.423635,  3.755968 )     1.28554742
  WF centre and spread   29  (  4.194280,  1.427204,  3.756436 )     1.26890140
  WF centre and spread   30  (  4.210550,  4.210631,  4.210937 )     1.06672940
  WF centre and spread   31  (  4.191189,  4.190852,  4.182914 )     1.27729840
  WF centre and spread   32  (  4.186279,  4.178442,  4.182015 )     1.29004477
  WF centre and spread   33  (  4.210458,  1.403065,  0.240694 )     1.04813649
  WF centre and spread   34  (  4.220156,  1.400923,  0.213903 )     1.24037977
  WF centre and spread   35  (  4.220476,  1.402795,  0.215662 )     1.23778528
  WF centre and spread   36  (  4.210666,  4.210434, -0.239469 )     1.04492276
  WF centre and spread   37  (  4.216544,  4.217058, -0.213687 )     1.24421631
  WF centre and spread   38  (  4.217025,  4.211814, -0.215575 )     1.24620386
  WF centre and spread   39  (  1.403321,  4.210671,  4.211485 )     1.07354665
  WF centre and spread   40  (  1.426413,  4.185527,  4.182640 )     1.29768783
  WF centre and spread   41  (  1.432122,  4.174344,  4.181311 )     1.29332666
  WF centre and spread   42  (  1.403689,  1.403577,  3.721789 )     1.07510524
  WF centre and spread   43  (  1.416798,  1.421482,  3.755660 )     1.28001857
  WF centre and spread   44  (  1.421512,  1.425084,  3.756813 )     1.25793121
  WF centre and spread   45  ( -0.000444, -0.273440,  2.054754 )     1.57206156
  WF centre and spread   46  (  0.000988, -0.306505,  1.984426 )     1.04368909
  WF centre and spread   47  ( -0.000259, -0.364927,  1.984915 )     1.06768370
  WF centre and spread   48  ( -0.000243,  0.269193,  5.860263 )     1.56885904
  WF centre and spread   49  (  0.001114,  0.305744,  5.954869 )     1.03715633
  WF centre and spread   50  ( -0.000391,  0.368058,  5.954965 )     1.07027855
  WF centre and spread   51  (  2.806455,  2.536610,  5.855258 )     1.62163108
  WF centre and spread   52  (  2.807893,  2.503434,  5.954886 )     1.04069197
  WF centre and spread   53  (  2.807350,  2.442367,  5.954240 )     1.07044579
  WF centre and spread   54  (  2.806482,  3.077941,  2.088362 )     1.62879083
  WF centre and spread   55  (  2.807693,  3.111489,  1.984513 )     1.03155645
  WF centre and spread   56  (  2.807198,  3.171666,  1.984441 )     1.07135281
  Sum of centres and spreads (113.086061,110.771718,134.811916 )   225.78869770

  10000     0.139E+00    12.8227166568      225.7886977028     914.31  <-- CONV
        O_D=      2.0401967 O_OD=     68.8887721 O_TOT=    225.7886977 <-- SPRD
 Delta: O_D=  0.1374468E+00 O_OD=  0.1420855E-02 O_TOT=  0.1388676E+00 <-- DLTA
 ------------------------------------------------------------------------------
 Final State
  WF centre and spread    1  (  0.000196, -0.000015,  0.000465 )     1.35746748
  WF centre and spread    2  (  0.000113,  0.000215,  0.000204 )     1.35771813
  WF centre and spread    3  ( -0.000993,  0.001311,  0.000737 )     1.31980377
  WF centre and spread    4  (  0.000086,  0.000200,  3.969767 )     1.35383411
  WF centre and spread    5  (  0.000254,  0.000446,  3.970156 )     1.35455777
  WF centre and spread    6  ( -0.000576,  0.001912,  3.968972 )     1.32183547
  WF centre and spread    7  (  2.807273,  2.807004,  3.969915 )     1.35468323
  WF centre and spread    8  (  2.806789,  2.806651,  3.969992 )     1.35525397
  WF centre and spread    9  (  2.807239,  2.807975,  3.969874 )     1.31828536
  WF centre and spread   10  (  2.807158,  2.807040, -0.000202 )     1.35713022
  WF centre and spread   11  (  2.806891,  2.806658, -0.000129 )     1.35728012
  WF centre and spread   12  (  2.807329,  2.807385,  0.000067 )     1.31941385
  WF centre and spread   13  ( -0.006404, -0.017387, -0.089483 )    15.27056488
  WF centre and spread   14  (  0.461040,  1.316644,  0.288662 )    20.82099173
  WF centre and spread   15  ( -0.561503,  0.549748,  5.396794 )    26.99513736
  WF centre and spread   16  (  0.083586, -0.169177,  3.956262 )    13.53456479
  WF centre and spread   17  (  3.441281,  0.850975,  2.230592 )    17.76125511
  WF centre and spread   18  (  2.986383,  1.066967,  4.011112 )    33.80264793
  WF centre and spread   19  (  2.800183,  2.852447, -0.004861 )    16.42635694
  WF centre and spread   20  (  2.815603,  3.292828, -0.036758 )    21.52071103
  WF centre and spread   21  (  1.403327,  4.210427, -0.240230 )     1.04606687
  WF centre and spread   22  (  1.396559,  4.215120, -0.214340 )     1.25731600
  WF centre and spread   23  (  1.397195,  4.212682, -0.215525 )     1.25289211
  WF centre and spread   24  (  1.403335,  1.403218,  0.242246 )     1.04940159
  WF centre and spread   25  (  1.393693,  1.399138,  0.214471 )     1.25088366
  WF centre and spread   26  (  1.394616,  1.398597,  0.215488 )     1.24304987
  WF centre and spread   27  (  4.210156,  1.403541,  3.722282 )     1.07761514
  WF centre and spread   28  (  4.199937,  1.423635,  3.755968 )     1.28554742
  WF centre and spread   29  (  4.194280,  1.427204,  3.756436 )     1.26890140
  WF centre and spread   30  (  4.210550,  4.210631,  4.210937 )     1.06672940
  WF centre and spread   31  (  4.191189,  4.190852,  4.182914 )     1.27729840
  WF centre and spread   32  (  4.186279,  4.178442,  4.182015 )     1.29004477
  WF centre and spread   33  (  4.210458,  1.403065,  0.240694 )     1.04813649
  WF centre and spread   34  (  4.220156,  1.400923,  0.213903 )     1.24037977
  WF centre and spread   35  (  4.220476,  1.402795,  0.215662 )     1.23778528
  WF centre and spread   36  (  4.210666,  4.210434, -0.239469 )     1.04492276
  WF centre and spread   37  (  4.216544,  4.217058, -0.213687 )     1.24421631
  WF centre and spread   38  (  4.217025,  4.211814, -0.215575 )     1.24620386
  WF centre and spread   39  (  1.403321,  4.210671,  4.211485 )     1.07354665
  WF centre and spread   40  (  1.426413,  4.185527,  4.182640 )     1.29768783
  WF centre and spread   41  (  1.432122,  4.174344,  4.181311 )     1.29332666
  WF centre and spread   42  (  1.403689,  1.403577,  3.721789 )     1.07510524
  WF centre and spread   43  (  1.416798,  1.421482,  3.755660 )     1.28001857
  WF centre and spread   44  (  1.421512,  1.425084,  3.756813 )     1.25793121
  WF centre and spread   45  ( -0.000444, -0.273440,  2.054754 )     1.57206156
  WF centre and spread   46  (  0.000988, -0.306505,  1.984426 )     1.04368909
  WF centre and spread   47  ( -0.000259, -0.364927,  1.984915 )     1.06768370
  WF centre and spread   48  ( -0.000243,  0.269193,  5.860263 )     1.56885904
  WF centre and spread   49  (  0.001114,  0.305744,  5.954869 )     1.03715633
  WF centre and spread   50  ( -0.000391,  0.368058,  5.954965 )     1.07027855
  WF centre and spread   51  (  2.806455,  2.536610,  5.855258 )     1.62163108
  WF centre and spread   52  (  2.807893,  2.503434,  5.954886 )     1.04069197
  WF centre and spread   53  (  2.807350,  2.442367,  5.954240 )     1.07044579
  WF centre and spread   54  (  2.806482,  3.077941,  2.088362 )     1.62879083
  WF centre and spread   55  (  2.807693,  3.111489,  1.984513 )     1.03155645
  WF centre and spread   56  (  2.807198,  3.171666,  1.984441 )     1.07135281
  Sum of centres and spreads (113.086061,110.771718,134.811916 )   225.78869770

         Spreads (Ang^2)       Omega I      =   154.859728911
        ================       Omega D      =     2.040196689
                               Omega OD     =    68.888772103
    Final Spread (Ang^2)       Omega Total  =   225.788697703
 ------------------------------------------------------------------------------

 Writing checkpoint file smo.chk... done

 *---------------------------------------------------------------------------*
 |                               PLOTTING                                    |
 *---------------------------------------------------------------------------*


 Calculating interpolated band-structure

 Time to calculate interpolated band structure       2.103 (sec)

  
  Omega Invariant:   1-s^2 =   154.859728909 (Ang^2)
                   -2log s =  1270.356817534 (Ang^2)
                    acos^2 =   249.216095509 (Ang^2)

 *===========================================================================*
 |                             TIMING INFORMATION                            |
 *===========================================================================*
 |    Tag                                                Ncalls      Time (s)|
 |---------------------------------------------------------------------------|
 |kmesh: get                                        :         1         0.113|
 |overlap: read                                     :         1         4.540|
 |wann: main                                        :         1       913.204|
 |plot: main                                        :         1         6.186|
 *---------------------------------------------------------------------------*
 All done: wannier90 exiting
