
     Program PWSCF v.7.5 starts on 29Nov2025 at 20:38:32 
        Git branch: develop
        Last git commit: 70e07caa2a5fab3dd9374bc01196f67e923fc5ea
        Last git commit date: Mon Aug 18 10:06:47 2025 +0000
        Last git commit subject: Merge branch 'stressed-by-optional-variables' into

     This program is part of the open-source Quantum ESPRESSO suite
     for quantum simulation of materials; please cite
         "P. Giannozzi et al., J. Phys.:Condens. Matter 21 395502 (2009);
         "P. Giannozzi et al., J. Phys.:Condens. Matter 29 465901 (2017);
         "P. Giannozzi et al., J. Chem. Phys. 152 154105 (2020);
          URL http://www.quantum-espresso.org", 
     in publications or presentations arising from this work. More details at
     http://www.quantum-espresso.org/quote

     Parallel version (MPI), running on   128 processors

     MPI processes distributed on     1 nodes
     977382 MiB available memory on the printing compute node when the environment starts

     Waiting for input...
     Reading input from standard input

     Current dimensions of program PWSCF are:
     Max number of different atomic species (ntypx) = 10
     Max number of k-points (npk) =  40000
     Max angular momentum in pseudopotentials (lmaxx) =  4
     file Sr.pz-spn-kjpaw_psl.1.0.0.UPF: wavefunction(s)  4P renormalized
     file Mo.pz-spn-kjpaw_psl.1.0.0.UPF: wavefunction(s)  4S 4D renormalized
     file O.pz-n-kjpaw_psl.1.0.0.UPF: wavefunction(s)  2S 2P renormalized

     Atomic positions and unit cell read from directory:
     ./out/smo.save/

     Found identity + (  0.5000 -0.5000 -0.5000) symmetry
     This is a supercell, fractional translations are disabled

     K-points division:     npool     =     128
     Subspace diagonalization in iterative solution of the eigenvalue problem:
     a serial algorithm will be used

     Message from routine divide_et_impera:
     suboptimal parallelization: some nodes have no k-points

     G-vector sticks info
     --------------------
     sticks:   dense  smooth     PW     G-vecs:    dense   smooth      PW
     Sum        3577    1789    553               228191    80831   13637

     Using Slab Decomposition



     bravais-lattice index     =            0
     lattice parameter (alat)  =      10.6088  a.u.
     unit-cell volume          =    1688.5722 (a.u.)^3
     number of atoms/cell      =           20
     number of atomic types    =            3
     number of electrons       =       168.00
     number of Kohn-Sham states=          101
     kinetic-energy cutoff     =      50.0000  Ry
     charge density cutoff     =     400.0000  Ry
     Exchange-correlation= SLA  PZ   NOGX NOGC
                           (   1   1   0   0   0   0   0)

     celldm(1)=  10.608847  celldm(2)=   0.000000  celldm(3)=   0.000000
     celldm(4)=   0.000000  celldm(5)=   0.000000  celldm(6)=   0.000000

     crystal axes: (cart. coord. in units of alat)
               a(1) = (   1.000000   0.000000   0.000000 )  
               a(2) = (   0.000000   1.000000   0.000000 )  
               a(3) = (   0.000000   0.000000   1.414214 )  

     reciprocal axes: (cart. coord. in units 2 pi/alat)
               b(1) = (  1.000000  0.000000  0.000000 )  
               b(2) = (  0.000000  1.000000  0.000000 )  
               b(3) = (  0.000000  0.000000  0.707107 )  


     PseudoPot. # 1 for Sr read from file:
     ../../../pseudo/Sr.pz-spn-kjpaw_psl.1.0.0.UPF
     MD5 check sum: 14b1f655f5497b386c4f305353cf4fd4
     Pseudo is Projector augmented-wave + core cor, Zval = 10.0
     Generated using 'atomic' code by A. Dal Corso  v.7.3
     Shape of augmentation charge: PSQ
     Using radial grid of 1221 points,  6 beta functions with: 
                l(1) =   0
                l(2) =   0
                l(3) =   1
                l(4) =   1
                l(5) =   2
                l(6) =   2
     Q(r) pseudized with 0 coefficients 


     PseudoPot. # 2 for Mo read from file:
     ../../../pseudo/Mo.pz-spn-kjpaw_psl.1.0.0.UPF
     MD5 check sum: 2e12aff744a4785a34e7548d4bec1d21
     Pseudo is Projector augmented-wave + core cor, Zval = 14.0
     Generated using 'atomic' code by A. Dal Corso  v.7.3
     Shape of augmentation charge: PSQ
     Using radial grid of 1229 points,  6 beta functions with: 
                l(1) =   0
                l(2) =   0
                l(3) =   1
                l(4) =   1
                l(5) =   2
                l(6) =   2
     Q(r) pseudized with 0 coefficients 


     PseudoPot. # 3 for O  read from file:
     ../../../pseudo/O.pz-n-kjpaw_psl.1.0.0.UPF
     MD5 check sum: 71a951e35f67dc87891058fc5642ed8f
     Pseudo is Projector augmented-wave + core cor, Zval =  6.0
     Generated using 'atomic' code by A. Dal Corso  v.7.3
     Shape of augmentation charge: PSQ
     Using radial grid of 1095 points,  4 beta functions with: 
                l(1) =   0
                l(2) =   0
                l(3) =   1
                l(4) =   1
     Q(r) pseudized with 0 coefficients 


     atomic species   valence    mass     pseudopotential
     Sr               10.00    87.62000     Sr( 1.00)
     Mo               14.00    95.95000     Mo( 1.00)
     O                 6.00    15.99900     O ( 1.00)

     No symmetry found


                                    s                        frac. trans.

      isym =  1     identity                                     

 cryst.   s( 1) = (     1          0          0      )
                  (     0          1          0      )
                  (     0          0          1      )

 cart.    s( 1) = (  1.0000000  0.0000000  0.0000000 )
                  (  0.0000000  1.0000000  0.0000000 )
                  (  0.0000000  0.0000000  1.0000000 )


   Cartesian axes

     site n.     atom                  positions (alat units)
         1        Sr     tau(   1) = (   0.0000000   0.5000000   0.3535535  )
         2        Sr     tau(   2) = (   0.0000000   0.5000000   1.0606604  )
         3        Sr     tau(   3) = (   0.5000000   0.0000000   1.0606604  )
         4        Sr     tau(   4) = (   0.5000000   0.0000000   0.3535535  )
         5        Mo     tau(   5) = (   0.0000000   0.0000000   0.0000000  )
         6        Mo     tau(   6) = (   0.0000000   0.0000000   0.7071069  )
         7        Mo     tau(   7) = (   0.5000000   0.5000000   0.7071069  )
         8        Mo     tau(   8) = (   0.5000000   0.5000000   0.0000000  )
         9        O      tau(   9) = (   0.2500000   0.7500000  -0.0125950  )
        10        O      tau(  10) = (   0.2500000   0.2500000   0.0125950  )
        11        O      tau(  11) = (   0.7500000   0.2500000   0.6945119  )
        12        O      tau(  12) = (   0.7500000   0.7500000   0.7197019  )
        13        O      tau(  13) = (   0.7500000   0.2500000   0.0125950  )
        14        O      tau(  14) = (   0.7500000   0.7500000  -0.0125950  )
        15        O      tau(  15) = (   0.2500000   0.7500000   0.7197019  )
        16        O      tau(  16) = (   0.2500000   0.2500000   0.6945119  )
        17        O      tau(  17) = (   0.0000000  -0.0178120   0.3535535  )
        18        O      tau(  18) = (   0.0000000   0.0178120   1.0606604  )
        19        O      tau(  19) = (   0.5000000   0.4821880   1.0606604  )
        20        O      tau(  20) = (   0.5000000   0.5178120   0.3535535  )

   Crystallographic axes

     site n.     atom                  positions (cryst. coord.)
         1        Sr     tau(   1) = (  0.0000000  0.5000000  0.2500000  )
         2        Sr     tau(   2) = (  0.0000000  0.5000000  0.7500000  )
         3        Sr     tau(   3) = (  0.5000000  0.0000000  0.7500000  )
         4        Sr     tau(   4) = (  0.5000000  0.0000000  0.2500000  )
         5        Mo     tau(   5) = (  0.0000000  0.0000000  0.0000000  )
         6        Mo     tau(   6) = (  0.0000000  0.0000000  0.5000000  )
         7        Mo     tau(   7) = (  0.5000000  0.5000000  0.5000000  )
         8        Mo     tau(   8) = (  0.5000000  0.5000000  0.0000000  )
         9        O      tau(   9) = (  0.2500000  0.7500000 -0.0089060  )
        10        O      tau(  10) = (  0.2500000  0.2500000  0.0089060  )
        11        O      tau(  11) = (  0.7500000  0.2500000  0.4910940  )
        12        O      tau(  12) = (  0.7500000  0.7500000  0.5089060  )
        13        O      tau(  13) = (  0.7500000  0.2500000  0.0089060  )
        14        O      tau(  14) = (  0.7500000  0.7500000 -0.0089060  )
        15        O      tau(  15) = (  0.2500000  0.7500000  0.5089060  )
        16        O      tau(  16) = (  0.2500000  0.2500000  0.4910940  )
        17        O      tau(  17) = (  0.0000000 -0.0178120  0.2500000  )
        18        O      tau(  18) = (  0.0000000  0.0178120  0.7500000  )
        19        O      tau(  19) = (  0.5000000  0.4821880  0.7500000  )
        20        O      tau(  20) = (  0.5000000  0.5178120  0.2500000  )

     number of k points=   125  Fermi-Dirac smearing, width (Ry)=  0.0015
                       cart. coord. in units 2pi/alat
        k(    1) = (   0.0000000   0.0000000   0.0000000), wk =   0.0160000
        k(    2) = (   0.0000000   0.0000000   0.1414213), wk =   0.0160000
        k(    3) = (   0.0000000   0.0000000   0.2828427), wk =   0.0160000
        k(    4) = (   0.0000000   0.0000000   0.4242640), wk =   0.0160000
        k(    5) = (   0.0000000   0.0000000   0.5656853), wk =   0.0160000
        k(    6) = (   0.0000000   0.2000000   0.0000000), wk =   0.0160000
        k(    7) = (   0.0000000   0.2000000   0.1414213), wk =   0.0160000
        k(    8) = (   0.0000000   0.2000000   0.2828427), wk =   0.0160000
        k(    9) = (   0.0000000   0.2000000   0.4242640), wk =   0.0160000
        k(   10) = (   0.0000000   0.2000000   0.5656853), wk =   0.0160000
        k(   11) = (   0.0000000   0.4000000   0.0000000), wk =   0.0160000
        k(   12) = (   0.0000000   0.4000000   0.1414213), wk =   0.0160000
        k(   13) = (   0.0000000   0.4000000   0.2828427), wk =   0.0160000
        k(   14) = (   0.0000000   0.4000000   0.4242640), wk =   0.0160000
        k(   15) = (   0.0000000   0.4000000   0.5656853), wk =   0.0160000
        k(   16) = (   0.0000000   0.6000000   0.0000000), wk =   0.0160000
        k(   17) = (   0.0000000   0.6000000   0.1414213), wk =   0.0160000
        k(   18) = (   0.0000000   0.6000000   0.2828427), wk =   0.0160000
        k(   19) = (   0.0000000   0.6000000   0.4242640), wk =   0.0160000
        k(   20) = (   0.0000000   0.6000000   0.5656853), wk =   0.0160000
        k(   21) = (   0.0000000   0.8000000   0.0000000), wk =   0.0160000
        k(   22) = (   0.0000000   0.8000000   0.1414213), wk =   0.0160000
        k(   23) = (   0.0000000   0.8000000   0.2828427), wk =   0.0160000
        k(   24) = (   0.0000000   0.8000000   0.4242640), wk =   0.0160000
        k(   25) = (   0.0000000   0.8000000   0.5656853), wk =   0.0160000
        k(   26) = (   0.2000000   0.0000000   0.0000000), wk =   0.0160000
        k(   27) = (   0.2000000   0.0000000   0.1414213), wk =   0.0160000
        k(   28) = (   0.2000000   0.0000000   0.2828427), wk =   0.0160000
        k(   29) = (   0.2000000   0.0000000   0.4242640), wk =   0.0160000
        k(   30) = (   0.2000000   0.0000000   0.5656853), wk =   0.0160000
        k(   31) = (   0.2000000   0.2000000   0.0000000), wk =   0.0160000
        k(   32) = (   0.2000000   0.2000000   0.1414213), wk =   0.0160000
        k(   33) = (   0.2000000   0.2000000   0.2828427), wk =   0.0160000
        k(   34) = (   0.2000000   0.2000000   0.4242640), wk =   0.0160000
        k(   35) = (   0.2000000   0.2000000   0.5656853), wk =   0.0160000
        k(   36) = (   0.2000000   0.4000000   0.0000000), wk =   0.0160000
        k(   37) = (   0.2000000   0.4000000   0.1414213), wk =   0.0160000
        k(   38) = (   0.2000000   0.4000000   0.2828427), wk =   0.0160000
        k(   39) = (   0.2000000   0.4000000   0.4242640), wk =   0.0160000
        k(   40) = (   0.2000000   0.4000000   0.5656853), wk =   0.0160000
        k(   41) = (   0.2000000   0.6000000   0.0000000), wk =   0.0160000
        k(   42) = (   0.2000000   0.6000000   0.1414213), wk =   0.0160000
        k(   43) = (   0.2000000   0.6000000   0.2828427), wk =   0.0160000
        k(   44) = (   0.2000000   0.6000000   0.4242640), wk =   0.0160000
        k(   45) = (   0.2000000   0.6000000   0.5656853), wk =   0.0160000
        k(   46) = (   0.2000000   0.8000000   0.0000000), wk =   0.0160000
        k(   47) = (   0.2000000   0.8000000   0.1414213), wk =   0.0160000
        k(   48) = (   0.2000000   0.8000000   0.2828427), wk =   0.0160000
        k(   49) = (   0.2000000   0.8000000   0.4242640), wk =   0.0160000
        k(   50) = (   0.2000000   0.8000000   0.5656853), wk =   0.0160000
        k(   51) = (   0.4000000   0.0000000   0.0000000), wk =   0.0160000
        k(   52) = (   0.4000000   0.0000000   0.1414213), wk =   0.0160000
        k(   53) = (   0.4000000   0.0000000   0.2828427), wk =   0.0160000
        k(   54) = (   0.4000000   0.0000000   0.4242640), wk =   0.0160000
        k(   55) = (   0.4000000   0.0000000   0.5656853), wk =   0.0160000
        k(   56) = (   0.4000000   0.2000000   0.0000000), wk =   0.0160000
        k(   57) = (   0.4000000   0.2000000   0.1414213), wk =   0.0160000
        k(   58) = (   0.4000000   0.2000000   0.2828427), wk =   0.0160000
        k(   59) = (   0.4000000   0.2000000   0.4242640), wk =   0.0160000
        k(   60) = (   0.4000000   0.2000000   0.5656853), wk =   0.0160000
        k(   61) = (   0.4000000   0.4000000   0.0000000), wk =   0.0160000
        k(   62) = (   0.4000000   0.4000000   0.1414213), wk =   0.0160000
        k(   63) = (   0.4000000   0.4000000   0.2828427), wk =   0.0160000
        k(   64) = (   0.4000000   0.4000000   0.4242640), wk =   0.0160000
        k(   65) = (   0.4000000   0.4000000   0.5656853), wk =   0.0160000
        k(   66) = (   0.4000000   0.6000000   0.0000000), wk =   0.0160000
        k(   67) = (   0.4000000   0.6000000   0.1414213), wk =   0.0160000
        k(   68) = (   0.4000000   0.6000000   0.2828427), wk =   0.0160000
        k(   69) = (   0.4000000   0.6000000   0.4242640), wk =   0.0160000
        k(   70) = (   0.4000000   0.6000000   0.5656853), wk =   0.0160000
        k(   71) = (   0.4000000   0.8000000   0.0000000), wk =   0.0160000
        k(   72) = (   0.4000000   0.8000000   0.1414213), wk =   0.0160000
        k(   73) = (   0.4000000   0.8000000   0.2828427), wk =   0.0160000
        k(   74) = (   0.4000000   0.8000000   0.4242640), wk =   0.0160000
        k(   75) = (   0.4000000   0.8000000   0.5656853), wk =   0.0160000
        k(   76) = (   0.6000000   0.0000000   0.0000000), wk =   0.0160000
        k(   77) = (   0.6000000   0.0000000   0.1414213), wk =   0.0160000
        k(   78) = (   0.6000000   0.0000000   0.2828427), wk =   0.0160000
        k(   79) = (   0.6000000   0.0000000   0.4242640), wk =   0.0160000
        k(   80) = (   0.6000000   0.0000000   0.5656853), wk =   0.0160000
        k(   81) = (   0.6000000   0.2000000   0.0000000), wk =   0.0160000
        k(   82) = (   0.6000000   0.2000000   0.1414213), wk =   0.0160000
        k(   83) = (   0.6000000   0.2000000   0.2828427), wk =   0.0160000
        k(   84) = (   0.6000000   0.2000000   0.4242640), wk =   0.0160000
        k(   85) = (   0.6000000   0.2000000   0.5656853), wk =   0.0160000
        k(   86) = (   0.6000000   0.4000000   0.0000000), wk =   0.0160000
        k(   87) = (   0.6000000   0.4000000   0.1414213), wk =   0.0160000
        k(   88) = (   0.6000000   0.4000000   0.2828427), wk =   0.0160000
        k(   89) = (   0.6000000   0.4000000   0.4242640), wk =   0.0160000
        k(   90) = (   0.6000000   0.4000000   0.5656853), wk =   0.0160000
        k(   91) = (   0.6000000   0.6000000   0.0000000), wk =   0.0160000
        k(   92) = (   0.6000000   0.6000000   0.1414213), wk =   0.0160000
        k(   93) = (   0.6000000   0.6000000   0.2828427), wk =   0.0160000
        k(   94) = (   0.6000000   0.6000000   0.4242640), wk =   0.0160000
        k(   95) = (   0.6000000   0.6000000   0.5656853), wk =   0.0160000
        k(   96) = (   0.6000000   0.8000000   0.0000000), wk =   0.0160000
        k(   97) = (   0.6000000   0.8000000   0.1414213), wk =   0.0160000
        k(   98) = (   0.6000000   0.8000000   0.2828427), wk =   0.0160000
        k(   99) = (   0.6000000   0.8000000   0.4242640), wk =   0.0160000
        k(  100) = (   0.6000000   0.8000000   0.5656853), wk =   0.0160000
        k(  101) = (   0.8000000   0.0000000   0.0000000), wk =   0.0160000
        k(  102) = (   0.8000000   0.0000000   0.1414213), wk =   0.0160000
        k(  103) = (   0.8000000   0.0000000   0.2828427), wk =   0.0160000
        k(  104) = (   0.8000000   0.0000000   0.4242640), wk =   0.0160000
        k(  105) = (   0.8000000   0.0000000   0.5656853), wk =   0.0160000
        k(  106) = (   0.8000000   0.2000000   0.0000000), wk =   0.0160000
        k(  107) = (   0.8000000   0.2000000   0.1414213), wk =   0.0160000
        k(  108) = (   0.8000000   0.2000000   0.2828427), wk =   0.0160000
        k(  109) = (   0.8000000   0.2000000   0.4242640), wk =   0.0160000
        k(  110) = (   0.8000000   0.2000000   0.5656853), wk =   0.0160000
        k(  111) = (   0.8000000   0.4000000   0.0000000), wk =   0.0160000
        k(  112) = (   0.8000000   0.4000000   0.1414213), wk =   0.0160000
        k(  113) = (   0.8000000   0.4000000   0.2828427), wk =   0.0160000
        k(  114) = (   0.8000000   0.4000000   0.4242640), wk =   0.0160000
        k(  115) = (   0.8000000   0.4000000   0.5656853), wk =   0.0160000
        k(  116) = (   0.8000000   0.6000000   0.0000000), wk =   0.0160000
        k(  117) = (   0.8000000   0.6000000   0.1414213), wk =   0.0160000
        k(  118) = (   0.8000000   0.6000000   0.2828427), wk =   0.0160000
        k(  119) = (   0.8000000   0.6000000   0.4242640), wk =   0.0160000
        k(  120) = (   0.8000000   0.6000000   0.5656853), wk =   0.0160000
        k(  121) = (   0.8000000   0.8000000   0.0000000), wk =   0.0160000
        k(  122) = (   0.8000000   0.8000000   0.1414213), wk =   0.0160000
        k(  123) = (   0.8000000   0.8000000   0.2828427), wk =   0.0160000
        k(  124) = (   0.8000000   0.8000000   0.4242640), wk =   0.0160000
        k(  125) = (   0.8000000   0.8000000   0.5656853), wk =   0.0160000

                       cryst. coord.
        k(    1) = (   0.0000000   0.0000000   0.0000000), wk =   0.0160000
        k(    2) = (   0.0000000   0.0000000   0.2000000), wk =   0.0160000
        k(    3) = (   0.0000000   0.0000000   0.4000000), wk =   0.0160000
        k(    4) = (   0.0000000   0.0000000   0.6000000), wk =   0.0160000
        k(    5) = (   0.0000000   0.0000000   0.8000000), wk =   0.0160000
        k(    6) = (   0.0000000   0.2000000   0.0000000), wk =   0.0160000
        k(    7) = (   0.0000000   0.2000000   0.2000000), wk =   0.0160000
        k(    8) = (   0.0000000   0.2000000   0.4000000), wk =   0.0160000
        k(    9) = (   0.0000000   0.2000000   0.6000000), wk =   0.0160000
        k(   10) = (   0.0000000   0.2000000   0.8000000), wk =   0.0160000
        k(   11) = (   0.0000000   0.4000000   0.0000000), wk =   0.0160000
        k(   12) = (   0.0000000   0.4000000   0.2000000), wk =   0.0160000
        k(   13) = (   0.0000000   0.4000000   0.4000000), wk =   0.0160000
        k(   14) = (   0.0000000   0.4000000   0.6000000), wk =   0.0160000
        k(   15) = (   0.0000000   0.4000000   0.8000000), wk =   0.0160000
        k(   16) = (   0.0000000   0.6000000   0.0000000), wk =   0.0160000
        k(   17) = (   0.0000000   0.6000000   0.2000000), wk =   0.0160000
        k(   18) = (   0.0000000   0.6000000   0.4000000), wk =   0.0160000
        k(   19) = (   0.0000000   0.6000000   0.6000000), wk =   0.0160000
        k(   20) = (   0.0000000   0.6000000   0.8000000), wk =   0.0160000
        k(   21) = (   0.0000000   0.8000000   0.0000000), wk =   0.0160000
        k(   22) = (   0.0000000   0.8000000   0.2000000), wk =   0.0160000
        k(   23) = (   0.0000000   0.8000000   0.4000000), wk =   0.0160000
        k(   24) = (   0.0000000   0.8000000   0.6000000), wk =   0.0160000
        k(   25) = (   0.0000000   0.8000000   0.8000000), wk =   0.0160000
        k(   26) = (   0.2000000   0.0000000   0.0000000), wk =   0.0160000
        k(   27) = (   0.2000000   0.0000000   0.2000000), wk =   0.0160000
        k(   28) = (   0.2000000   0.0000000   0.4000000), wk =   0.0160000
        k(   29) = (   0.2000000   0.0000000   0.6000000), wk =   0.0160000
        k(   30) = (   0.2000000   0.0000000   0.8000000), wk =   0.0160000
        k(   31) = (   0.2000000   0.2000000   0.0000000), wk =   0.0160000
        k(   32) = (   0.2000000   0.2000000   0.2000000), wk =   0.0160000
        k(   33) = (   0.2000000   0.2000000   0.4000000), wk =   0.0160000
        k(   34) = (   0.2000000   0.2000000   0.6000000), wk =   0.0160000
        k(   35) = (   0.2000000   0.2000000   0.8000000), wk =   0.0160000
        k(   36) = (   0.2000000   0.4000000   0.0000000), wk =   0.0160000
        k(   37) = (   0.2000000   0.4000000   0.2000000), wk =   0.0160000
        k(   38) = (   0.2000000   0.4000000   0.4000000), wk =   0.0160000
        k(   39) = (   0.2000000   0.4000000   0.6000000), wk =   0.0160000
        k(   40) = (   0.2000000   0.4000000   0.8000000), wk =   0.0160000
        k(   41) = (   0.2000000   0.6000000   0.0000000), wk =   0.0160000
        k(   42) = (   0.2000000   0.6000000   0.2000000), wk =   0.0160000
        k(   43) = (   0.2000000   0.6000000   0.4000000), wk =   0.0160000
        k(   44) = (   0.2000000   0.6000000   0.6000000), wk =   0.0160000
        k(   45) = (   0.2000000   0.6000000   0.8000000), wk =   0.0160000
        k(   46) = (   0.2000000   0.8000000   0.0000000), wk =   0.0160000
        k(   47) = (   0.2000000   0.8000000   0.2000000), wk =   0.0160000
        k(   48) = (   0.2000000   0.8000000   0.4000000), wk =   0.0160000
        k(   49) = (   0.2000000   0.8000000   0.6000000), wk =   0.0160000
        k(   50) = (   0.2000000   0.8000000   0.8000000), wk =   0.0160000
        k(   51) = (   0.4000000   0.0000000   0.0000000), wk =   0.0160000
        k(   52) = (   0.4000000   0.0000000   0.2000000), wk =   0.0160000
        k(   53) = (   0.4000000   0.0000000   0.4000000), wk =   0.0160000
        k(   54) = (   0.4000000   0.0000000   0.6000000), wk =   0.0160000
        k(   55) = (   0.4000000   0.0000000   0.8000000), wk =   0.0160000
        k(   56) = (   0.4000000   0.2000000   0.0000000), wk =   0.0160000
        k(   57) = (   0.4000000   0.2000000   0.2000000), wk =   0.0160000
        k(   58) = (   0.4000000   0.2000000   0.4000000), wk =   0.0160000
        k(   59) = (   0.4000000   0.2000000   0.6000000), wk =   0.0160000
        k(   60) = (   0.4000000   0.2000000   0.8000000), wk =   0.0160000
        k(   61) = (   0.4000000   0.4000000   0.0000000), wk =   0.0160000
        k(   62) = (   0.4000000   0.4000000   0.2000000), wk =   0.0160000
        k(   63) = (   0.4000000   0.4000000   0.4000000), wk =   0.0160000
        k(   64) = (   0.4000000   0.4000000   0.6000000), wk =   0.0160000
        k(   65) = (   0.4000000   0.4000000   0.8000000), wk =   0.0160000
        k(   66) = (   0.4000000   0.6000000   0.0000000), wk =   0.0160000
        k(   67) = (   0.4000000   0.6000000   0.2000000), wk =   0.0160000
        k(   68) = (   0.4000000   0.6000000   0.4000000), wk =   0.0160000
        k(   69) = (   0.4000000   0.6000000   0.6000000), wk =   0.0160000
        k(   70) = (   0.4000000   0.6000000   0.8000000), wk =   0.0160000
        k(   71) = (   0.4000000   0.8000000   0.0000000), wk =   0.0160000
        k(   72) = (   0.4000000   0.8000000   0.2000000), wk =   0.0160000
        k(   73) = (   0.4000000   0.8000000   0.4000000), wk =   0.0160000
        k(   74) = (   0.4000000   0.8000000   0.6000000), wk =   0.0160000
        k(   75) = (   0.4000000   0.8000000   0.8000000), wk =   0.0160000
        k(   76) = (   0.6000000   0.0000000   0.0000000), wk =   0.0160000
        k(   77) = (   0.6000000   0.0000000   0.2000000), wk =   0.0160000
        k(   78) = (   0.6000000   0.0000000   0.4000000), wk =   0.0160000
        k(   79) = (   0.6000000   0.0000000   0.6000000), wk =   0.0160000
        k(   80) = (   0.6000000   0.0000000   0.8000000), wk =   0.0160000
        k(   81) = (   0.6000000   0.2000000   0.0000000), wk =   0.0160000
        k(   82) = (   0.6000000   0.2000000   0.2000000), wk =   0.0160000
        k(   83) = (   0.6000000   0.2000000   0.4000000), wk =   0.0160000
        k(   84) = (   0.6000000   0.2000000   0.6000000), wk =   0.0160000
        k(   85) = (   0.6000000   0.2000000   0.8000000), wk =   0.0160000
        k(   86) = (   0.6000000   0.4000000   0.0000000), wk =   0.0160000
        k(   87) = (   0.6000000   0.4000000   0.2000000), wk =   0.0160000
        k(   88) = (   0.6000000   0.4000000   0.4000000), wk =   0.0160000
        k(   89) = (   0.6000000   0.4000000   0.6000000), wk =   0.0160000
        k(   90) = (   0.6000000   0.4000000   0.8000000), wk =   0.0160000
        k(   91) = (   0.6000000   0.6000000   0.0000000), wk =   0.0160000
        k(   92) = (   0.6000000   0.6000000   0.2000000), wk =   0.0160000
        k(   93) = (   0.6000000   0.6000000   0.4000000), wk =   0.0160000
        k(   94) = (   0.6000000   0.6000000   0.6000000), wk =   0.0160000
        k(   95) = (   0.6000000   0.6000000   0.8000000), wk =   0.0160000
        k(   96) = (   0.6000000   0.8000000   0.0000000), wk =   0.0160000
        k(   97) = (   0.6000000   0.8000000   0.2000000), wk =   0.0160000
        k(   98) = (   0.6000000   0.8000000   0.4000000), wk =   0.0160000
        k(   99) = (   0.6000000   0.8000000   0.6000000), wk =   0.0160000
        k(  100) = (   0.6000000   0.8000000   0.8000000), wk =   0.0160000
        k(  101) = (   0.8000000   0.0000000   0.0000000), wk =   0.0160000
        k(  102) = (   0.8000000   0.0000000   0.2000000), wk =   0.0160000
        k(  103) = (   0.8000000   0.0000000   0.4000000), wk =   0.0160000
        k(  104) = (   0.8000000   0.0000000   0.6000000), wk =   0.0160000
        k(  105) = (   0.8000000   0.0000000   0.8000000), wk =   0.0160000
        k(  106) = (   0.8000000   0.2000000   0.0000000), wk =   0.0160000
        k(  107) = (   0.8000000   0.2000000   0.2000000), wk =   0.0160000
        k(  108) = (   0.8000000   0.2000000   0.4000000), wk =   0.0160000
        k(  109) = (   0.8000000   0.2000000   0.6000000), wk =   0.0160000
        k(  110) = (   0.8000000   0.2000000   0.8000000), wk =   0.0160000
        k(  111) = (   0.8000000   0.4000000   0.0000000), wk =   0.0160000
        k(  112) = (   0.8000000   0.4000000   0.2000000), wk =   0.0160000
        k(  113) = (   0.8000000   0.4000000   0.4000000), wk =   0.0160000
        k(  114) = (   0.8000000   0.4000000   0.6000000), wk =   0.0160000
        k(  115) = (   0.8000000   0.4000000   0.8000000), wk =   0.0160000
        k(  116) = (   0.8000000   0.6000000   0.0000000), wk =   0.0160000
        k(  117) = (   0.8000000   0.6000000   0.2000000), wk =   0.0160000
        k(  118) = (   0.8000000   0.6000000   0.4000000), wk =   0.0160000
        k(  119) = (   0.8000000   0.6000000   0.6000000), wk =   0.0160000
        k(  120) = (   0.8000000   0.6000000   0.8000000), wk =   0.0160000
        k(  121) = (   0.8000000   0.8000000   0.0000000), wk =   0.0160000
        k(  122) = (   0.8000000   0.8000000   0.2000000), wk =   0.0160000
        k(  123) = (   0.8000000   0.8000000   0.4000000), wk =   0.0160000
        k(  124) = (   0.8000000   0.8000000   0.6000000), wk =   0.0160000
        k(  125) = (   0.8000000   0.8000000   0.8000000), wk =   0.0160000

     Dense  grid:   228191 G-vectors     FFT dimensions: (  72,  72,  96)

     Smooth grid:    80831 G-vectors     FFT dimensions: (  48,  48,  72)

     Dynamical RAM for                 wfc:      15.54 MB

     Dynamical RAM for     wfc (w. buffer):      15.54 MB

     Dynamical RAM for           str. fact:      10.45 MB

     Dynamical RAM for           local pot:       0.00 MB

     Dynamical RAM for          nlocal pot:      36.92 MB

     Dynamical RAM for                qrad:       4.82 MB

     Dynamical RAM for          rho,v,vnew:      21.84 MB

     Dynamical RAM for           G-vectors:      13.67 MB

     Dynamical RAM for          h,s,v(r/c):      29.89 MB

     Dynamical RAM for          <psi|beta>:       0.37 MB

     Dynamical RAM for                 psi:     124.29 MB

     Dynamical RAM for                hpsi:     124.29 MB

     Dynamical RAM for                spsi:     124.29 MB

     Dynamical RAM for      wfcinit/wfcrot:      31.31 MB

     Dynamical RAM for           addusdens:       8.84 MB

     Estimated static dynamical RAM per process >     136.14 MB

     Estimated max dynamical RAM per process >     539.26 MB

     Estimated total dynamical RAM >      67.41 GB

     Check: negative core charge=   -0.000002

     The potential is recalculated from file :
     ./out/smo.save/charge-density

     Starting wfcs are  120 randomized atomic wfcs
     Checking if some PAW data can be deallocated... 
       PAW data deallocated on  100 nodes for type:  1
       PAW data deallocated on  100 nodes for type:  2
       PAW data deallocated on   56 nodes for type:  3

     Band Structure Calculation
     Davidson diagonalization with overlap

     Computing kpt #:     1  of     1 on this pool
     c_bands:  2 eigenvalues not converged
     total cpu time spent up to now is       37.9 secs

     ethr =  5.95E-12,  avg # of iterations = 61.0

     total cpu time spent up to now is       37.9 secs

     End of band structure calculation

          k = 0.0000 0.0000 0.0000 ( 10085 PWs)   bands (ev):

   -48.9294 -48.9285 -48.9266 -48.9254 -23.2628 -23.2443 -23.2418 -23.2396
   -23.2378 -23.2355 -23.1708 -23.1644 -23.1638 -23.1617 -23.1602 -23.1584
   -22.1198 -22.0877 -22.0841 -22.0685  -6.9724  -6.7325  -6.2652  -6.0632
    -6.0519  -6.0081  -5.7749  -5.7596  -5.3144  -5.2972  -5.2952  -5.2819
    -4.3955  -4.3860  -4.3685  -4.1436  -4.1295  -4.1293  -4.1070  -4.1003
    -4.0544  -3.7474  -3.7327  -3.6394   5.1617   5.1795   5.1821   5.2786
     5.3629   5.4139   5.6047   6.2409   6.2411   6.2424   7.1788   7.1802
     7.6307   7.6319   7.7376   7.7448   7.7851   7.7882   7.7921   7.8460
     8.3186   8.7328   8.7410   8.7586   9.1027   9.1121   9.1192   9.4687
     9.4741   9.7565   9.7566   9.7632  10.1865  10.2184  10.2311  10.2454
    11.6632  11.6777  11.6781  11.8659  14.3086  14.3558  14.3567  14.3885
    15.1631  15.2230  15.3269  15.4501  15.5096  15.5850  15.6644  15.6867
    15.7242  15.9024  16.6219  17.0711  17.0862

     occupation numbers 
     1.0000   1.0000   1.0000   1.0000   1.0000   1.0000   1.0000   1.0000
     1.0000   1.0000   1.0000   1.0000   1.0000   1.0000   1.0000   1.0000
     1.0000   1.0000   1.0000   1.0000   1.0000   1.0000   1.0000   1.0000
     1.0000   1.0000   1.0000   1.0000   1.0000   1.0000   1.0000   1.0000
     1.0000   1.0000   1.0000   1.0000   1.0000   1.0000   1.0000   1.0000
     1.0000   1.0000   1.0000   1.0000   1.0000   1.0000   1.0000   1.0000
     1.0000   1.0000   1.0000   1.0000   1.0000   1.0000   1.0000   1.0000
     1.0000   1.0000   1.0000   1.0000   1.0000   1.0000   1.0000   1.0000
     1.0000   1.0000   1.0000   1.0000   1.0000   1.0000   1.0000   1.0000
     1.0000   1.0000   1.0000   1.0000   1.0000   1.0000   1.0000   1.0000
     1.0000   1.0000   1.0000   1.0000   0.0000   0.0000   0.0000   0.0000
     0.0000   0.0000   0.0000   0.0000   0.0000   0.0000   0.0000   0.0000
     0.0000   0.0000   0.0000   0.0000   0.0000

          k = 0.0000 0.0000 0.1414 ( 10050 PWs)   bands (ev):

   -48.9294 -48.9282 -48.9266 -48.9252 -23.2541 -23.2415 -23.2392 -23.2381
   -23.2367 -23.2358 -23.1798 -23.1720 -23.1635 -23.1614 -23.1606 -23.1586
   -22.1166 -22.0906 -22.0826 -22.0700  -6.9406  -6.7320  -6.1825  -6.0482
    -6.0355  -6.0131  -5.7478  -5.7262  -5.4069  -5.3996  -5.3631  -5.3513
    -4.3646  -4.3010  -4.2849  -4.1401  -4.1274  -4.1105  -4.1035  -4.0887
    -4.0748  -3.7956  -3.7811  -3.6801   5.1634   5.1778   5.3050   5.3680
     5.4927   5.5293   5.7499   6.1628   6.2988   6.2990   7.0238   7.0263
     7.5833   7.6192   7.6251   7.7684   7.7717   7.8574   7.8625   7.9449
     8.3342   8.3927   8.9245   8.9364   8.9408   8.9575   9.0254   9.3993
     9.4815   9.4885   9.6836   9.6911  10.1129  10.1222  10.1934  10.2451
    11.6939  11.8463  11.9972  12.0090  14.0882  14.1222  14.4248  14.4582
    15.1893  15.2106  15.2287  15.4233  15.5093  15.5414  15.8297  15.8917
    15.9018  16.1647  16.9899  17.1471  17.2878

     occupation numbers 
     1.0000   1.0000   1.0000   1.0000   1.0000   1.0000   1.0000   1.0000
     1.0000   1.0000   1.0000   1.0000   1.0000   1.0000   1.0000   1.0000
     1.0000   1.0000   1.0000   1.0000   1.0000   1.0000   1.0000   1.0000
     1.0000   1.0000   1.0000   1.0000   1.0000   1.0000   1.0000   1.0000
     1.0000   1.0000   1.0000   1.0000   1.0000   1.0000   1.0000   1.0000
     1.0000   1.0000   1.0000   1.0000   1.0000   1.0000   1.0000   1.0000
     1.0000   1.0000   1.0000   1.0000   1.0000   1.0000   1.0000   1.0000
     1.0000   1.0000   1.0000   1.0000   1.0000   1.0000   1.0000   1.0000
     1.0000   1.0000   1.0000   1.0000   1.0000   1.0000   1.0000   1.0000
     1.0000   1.0000   1.0000   1.0000   1.0000   1.0000   1.0000   1.0000
     1.0000   1.0000   1.0000   1.0000   0.0000   0.0000   0.0000   0.0000
     0.0000   0.0000   0.0000   0.0000   0.0000   0.0000   0.0000   0.0000
     0.0000   0.0000   0.0000   0.0000   0.0000

          k = 0.0000 0.0000 0.2828 ( 10046 PWs)   bands (ev):

   -48.9292 -48.9284 -48.9263 -48.9254 -23.2405 -23.2391 -23.2382 -23.2368
   -23.2315 -23.2167 -23.2032 -23.1921 -23.1627 -23.1614 -23.1605 -23.1593
   -22.1084 -22.0984 -22.0787 -22.0739  -6.8589  -6.7707  -6.0382  -6.0250
    -5.9574  -5.9076  -5.7201  -5.6596  -5.6322  -5.5778  -5.4970  -5.4948
    -4.2820  -4.1768  -4.1310  -4.1208  -4.1196  -4.1169  -4.1115  -4.1024
    -3.9415  -3.9294  -3.9152  -3.7917   5.1678   5.1733   5.3788   5.3794
     5.6992   5.9550   6.1869   6.4033   6.4672   6.4680   6.7296   6.7340
     6.9930   7.3797   7.6585   7.6694   7.7178   7.7190   8.1377   8.1423
     8.2416   8.5279   8.5345   8.5757   8.7466   8.8139   9.3753   9.3851
     9.5223   9.5308   9.5896   9.5985   9.8088   9.8169  10.2112  10.2321
    11.7382  11.7966  12.7201  12.7313  13.4954  13.5130  14.6235  14.6593
    14.9174  14.9552  15.2617  15.3519  15.5094  15.5148  16.2361  16.3305
    16.5134  16.7828  16.8804  17.0671  17.2468

     occupation numbers 
     1.0000   1.0000   1.0000   1.0000   1.0000   1.0000   1.0000   1.0000
     1.0000   1.0000   1.0000   1.0000   1.0000   1.0000   1.0000   1.0000
     1.0000   1.0000   1.0000   1.0000   1.0000   1.0000   1.0000   1.0000
     1.0000   1.0000   1.0000   1.0000   1.0000   1.0000   1.0000   1.0000
     1.0000   1.0000   1.0000   1.0000   1.0000   1.0000   1.0000   1.0000
     1.0000   1.0000   1.0000   1.0000   1.0000   1.0000   1.0000   1.0000
     1.0000   1.0000   1.0000   1.0000   1.0000   1.0000   1.0000   1.0000
     1.0000   1.0000   1.0000   1.0000   1.0000   1.0000   1.0000   1.0000
     1.0000   1.0000   1.0000   1.0000   1.0000   1.0000   1.0000   1.0000
     1.0000   1.0000   1.0000   1.0000   1.0000   1.0000   1.0000   1.0000
     1.0000   1.0000   1.0000   1.0000   0.9971   0.9932   0.0000   0.0000
     0.0000   0.0000   0.0000   0.0000   0.0000   0.0000   0.0000   0.0000
     0.0000   0.0000   0.0000   0.0000   0.0000

          k = 0.0000 0.0000 0.4243 ( 10046 PWs)   bands (ev):

   -48.9292 -48.9284 -48.9263 -48.9254 -23.2405 -23.2391 -23.2382 -23.2368
   -23.2315 -23.2167 -23.2032 -23.1921 -23.1627 -23.1614 -23.1605 -23.1593
   -22.1084 -22.0984 -22.0787 -22.0739  -6.8589  -6.7707  -6.0382  -6.0250
    -5.9574  -5.9076  -5.7201  -5.6596  -5.6322  -5.5778  -5.4970  -5.4948
    -4.2820  -4.1768  -4.1310  -4.1208  -4.1196  -4.1169  -4.1115  -4.1024
    -3.9415  -3.9294  -3.9152  -3.7917   5.1678   5.1733   5.3788   5.3794
     5.6992   5.9550   6.1869   6.4033   6.4672   6.4680   6.7296   6.7340
     6.9930   7.3797   7.6585   7.6694   7.7178   7.7190   8.1377   8.1423
     8.2416   8.5279   8.5345   8.5757   8.7466   8.8139   9.3753   9.3851
     9.5223   9.5308   9.5896   9.5985   9.8088   9.8169  10.2112  10.2321
    11.7382  11.7966  12.7201  12.7313  13.4954  13.5130  14.6235  14.6593
    14.9174  14.9552  15.2617  15.3519  15.5094  15.5148  16.2361  16.3305
    16.5134  16.7828  16.8804  17.0671  17.2468

     occupation numbers 
     1.0000   1.0000   1.0000   1.0000   1.0000   1.0000   1.0000   1.0000
     1.0000   1.0000   1.0000   1.0000   1.0000   1.0000   1.0000   1.0000
     1.0000   1.0000   1.0000   1.0000   1.0000   1.0000   1.0000   1.0000
     1.0000   1.0000   1.0000   1.0000   1.0000   1.0000   1.0000   1.0000
     1.0000   1.0000   1.0000   1.0000   1.0000   1.0000   1.0000   1.0000
     1.0000   1.0000   1.0000   1.0000   1.0000   1.0000   1.0000   1.0000
     1.0000   1.0000   1.0000   1.0000   1.0000   1.0000   1.0000   1.0000
     1.0000   1.0000   1.0000   1.0000   1.0000   1.0000   1.0000   1.0000
     1.0000   1.0000   1.0000   1.0000   1.0000   1.0000   1.0000   1.0000
     1.0000   1.0000   1.0000   1.0000   1.0000   1.0000   1.0000   1.0000
     1.0000   1.0000   1.0000   1.0000   0.9971   0.9932   0.0000   0.0000
     0.0000   0.0000   0.0000   0.0000   0.0000   0.0000   0.0000   0.0000
     0.0000   0.0000   0.0000   0.0000   0.0000

          k = 0.0000 0.0000 0.5657 ( 10050 PWs)   bands (ev):

   -48.9294 -48.9282 -48.9266 -48.9252 -23.2541 -23.2415 -23.2392 -23.2381
   -23.2367 -23.2358 -23.1798 -23.1720 -23.1635 -23.1614 -23.1606 -23.1586
   -22.1166 -22.0906 -22.0826 -22.0700  -6.9406  -6.7320  -6.1825  -6.0482
    -6.0355  -6.0131  -5.7478  -5.7262  -5.4069  -5.3996  -5.3631  -5.3513
    -4.3646  -4.3010  -4.2849  -4.1401  -4.1274  -4.1105  -4.1035  -4.0887
    -4.0748  -3.7956  -3.7811  -3.6801   5.1634   5.1778   5.3050   5.3680
     5.4927   5.5293   5.7499   6.1628   6.2988   6.2990   7.0238   7.0263
     7.5833   7.6192   7.6251   7.7684   7.7717   7.8574   7.8625   7.9449
     8.3342   8.3927   8.9245   8.9364   8.9408   8.9575   9.0254   9.3993
     9.4815   9.4885   9.6836   9.6911  10.1129  10.1222  10.1934  10.2451
    11.6939  11.8463  11.9972  12.0090  14.0882  14.1222  14.4248  14.4582
    15.1893  15.2106  15.2287  15.4233  15.5093  15.5414  15.8297  15.8917
    15.9018  16.1647  16.9899  17.1471  17.2878

     occupation numbers 
     1.0000   1.0000   1.0000   1.0000   1.0000   1.0000   1.0000   1.0000
     1.0000   1.0000   1.0000   1.0000   1.0000   1.0000   1.0000   1.0000
     1.0000   1.0000   1.0000   1.0000   1.0000   1.0000   1.0000   1.0000
     1.0000   1.0000   1.0000   1.0000   1.0000   1.0000   1.0000   1.0000
     1.0000   1.0000   1.0000   1.0000   1.0000   1.0000   1.0000   1.0000
     1.0000   1.0000   1.0000   1.0000   1.0000   1.0000   1.0000   1.0000
     1.0000   1.0000   1.0000   1.0000   1.0000   1.0000   1.0000   1.0000
     1.0000   1.0000   1.0000   1.0000   1.0000   1.0000   1.0000   1.0000
     1.0000   1.0000   1.0000   1.0000   1.0000   1.0000   1.0000   1.0000
     1.0000   1.0000   1.0000   1.0000   1.0000   1.0000   1.0000   1.0000
     1.0000   1.0000   1.0000   1.0000   0.0000   0.0000   0.0000   0.0000
     0.0000   0.0000   0.0000   0.0000   0.0000   0.0000   0.0000   0.0000
     0.0000   0.0000   0.0000   0.0000   0.0000

          k = 0.0000 0.2000 0.0000 ( 10076 PWs)   bands (ev):

   -48.9292 -48.9277 -48.9273 -48.9255 -23.2600 -23.2452 -23.2365 -23.2324
   -23.2306 -23.2282 -23.1735 -23.1701 -23.1693 -23.1684 -23.1656 -23.1644
   -22.1137 -22.0869 -22.0850 -22.0714  -6.8502  -6.7225  -6.4032  -6.0367
    -6.0205  -5.9459  -5.7834  -5.7141  -5.5423  -5.4112  -5.4056  -5.3598
    -4.3615  -4.2623  -4.1959  -4.1357  -4.1155  -4.1139  -4.0653  -4.0415
    -3.9914  -3.7976  -3.7509  -3.6826   5.2360   5.2748   5.4219   5.4395
     5.5743   5.6896   5.8186   6.1552   6.2938   6.3669   6.8767   7.2397
     7.2523   7.2980   7.4876   7.4951   7.6357   7.6561   7.7434   8.5510
     8.6018   8.6306   8.6860   8.7842   8.7917   8.8824   8.9305   9.1228
     9.2022   9.3019   9.4619   9.5847  10.0390  10.0418  10.0766  10.1702
    11.9639  12.0684  12.2360  12.4069  14.1358  14.1752  14.3325  14.3898
    14.8736  15.1304  15.1495  15.2663  15.7343  15.9960  16.0365  16.1229
    16.1302  16.3525  16.5853  17.3246  17.4076

     occupation numbers 
     1.0000   1.0000   1.0000   1.0000   1.0000   1.0000   1.0000   1.0000
     1.0000   1.0000   1.0000   1.0000   1.0000   1.0000   1.0000   1.0000
     1.0000   1.0000   1.0000   1.0000   1.0000   1.0000   1.0000   1.0000
     1.0000   1.0000   1.0000   1.0000   1.0000   1.0000   1.0000   1.0000
     1.0000   1.0000   1.0000   1.0000   1.0000   1.0000   1.0000   1.0000
     1.0000   1.0000   1.0000   1.0000   1.0000   1.0000   1.0000   1.0000
     1.0000   1.0000   1.0000   1.0000   1.0000   1.0000   1.0000   1.0000
     1.0000   1.0000   1.0000   1.0000   1.0000   1.0000   1.0000   1.0000
     1.0000   1.0000   1.0000   1.0000   1.0000   1.0000   1.0000   1.0000
     1.0000   1.0000   1.0000   1.0000   1.0000   1.0000   1.0000   1.0000
     1.0000   1.0000   1.0000   1.0000   0.0000   0.0000   0.0000   0.0000
     0.0000   0.0000   0.0000   0.0000   0.0000   0.0000   0.0000   0.0000
     0.0000   0.0000   0.0000   0.0000   0.0000

          k = 0.0000 0.2000 0.1414 ( 10060 PWs)   bands (ev):

   -48.9292 -48.9279 -48.9269 -48.9255 -23.2517 -23.2375 -23.2359 -23.2319
   -23.2311 -23.2285 -23.1792 -23.1728 -23.1727 -23.1689 -23.1682 -23.1660
   -22.1110 -22.0894 -22.0837 -22.0727  -6.8232  -6.7047  -6.3277  -6.0230
    -6.0141  -5.9546  -5.7518  -5.6898  -5.6381  -5.4954  -5.4242  -5.4172
    -4.2946  -4.2915  -4.1341  -4.1281  -4.1161  -4.1063  -4.0805  -4.0078
    -4.0052  -3.8408  -3.7740  -3.7136   5.4235   5.4378   5.4396   5.5247
     5.5968   5.7332   5.8571   6.1923   6.3547   6.3559   6.9527   7.0734
     7.1262   7.3047   7.3939   7.5449   7.6136   7.6189   7.6849   8.3455
     8.5001   8.5064   8.5856   8.8308   8.8770   8.9682   9.0078   9.0954
     9.2146   9.2220   9.4281   9.4282   9.9872   9.9941  10.0456  10.1230
    12.1739  12.2880  12.2917  12.3889  14.1200  14.1566  14.2086  14.2437
    14.8960  15.0475  15.0995  15.1123  16.1181  16.1252  16.1293  16.1481
    16.1910  16.5100  16.9918  17.5288  17.5377

     occupation numbers 
     1.0000   1.0000   1.0000   1.0000   1.0000   1.0000   1.0000   1.0000
     1.0000   1.0000   1.0000   1.0000   1.0000   1.0000   1.0000   1.0000
     1.0000   1.0000   1.0000   1.0000   1.0000   1.0000   1.0000   1.0000
     1.0000   1.0000   1.0000   1.0000   1.0000   1.0000   1.0000   1.0000
     1.0000   1.0000   1.0000   1.0000   1.0000   1.0000   1.0000   1.0000
     1.0000   1.0000   1.0000   1.0000   1.0000   1.0000   1.0000   1.0000
     1.0000   1.0000   1.0000   1.0000   1.0000   1.0000   1.0000   1.0000
     1.0000   1.0000   1.0000   1.0000   1.0000   1.0000   1.0000   1.0000
     1.0000   1.0000   1.0000   1.0000   1.0000   1.0000   1.0000   1.0000
     1.0000   1.0000   1.0000   1.0000   1.0000   1.0000   1.0000   1.0000
     1.0000   1.0000   1.0000   1.0000   0.0000   0.0000   0.0000   0.0000
     0.0000   0.0000   0.0000   0.0000   0.0000   0.0000   0.0000   0.0000
     0.0000   0.0000   0.0000   0.0000   0.0000

          k = 0.0000 0.2000 0.2828 ( 10071 PWs)   bands (ev):

   -48.9288 -48.9282 -48.9266 -48.9260 -23.2346 -23.2327 -23.2309 -23.2295
   -23.2294 -23.2176 -23.2018 -23.1928 -23.1715 -23.1698 -23.1680 -23.1668
   -22.1042 -22.0959 -22.0803 -22.0761  -6.7578  -6.7023  -6.1263  -5.9969
    -5.9745  -5.9391  -5.8491  -5.7242  -5.6651  -5.5938  -5.5414  -5.5016
    -4.2779  -4.1980  -4.1483  -4.1309  -4.1038  -4.0773  -4.0385  -3.9668
    -3.9597  -3.9113  -3.8486  -3.7983   5.4278   5.4333   5.6248   5.6260
     5.8743   6.0385   6.1747   6.3485   6.5332   6.5782   6.7364   6.8104
     6.9326   7.1493   7.3956   7.4371   7.4507   7.5642   7.7357   7.8056
     8.0977   8.1141   8.6522   8.7867   9.0222   9.0676   9.1859   9.2277
     9.2584   9.3092   9.3408   9.4009   9.7156   9.7722  10.0575  10.0788
    12.2819  12.3418  12.8394  12.8661  13.5539  13.5706  14.4243  14.4452
    14.7449  14.7589  14.9609  15.0434  16.1279  16.1288  16.5603  16.5951
    16.8192  17.0960  17.1037  17.1956  17.4704

     occupation numbers 
     1.0000   1.0000   1.0000   1.0000   1.0000   1.0000   1.0000   1.0000
     1.0000   1.0000   1.0000   1.0000   1.0000   1.0000   1.0000   1.0000
     1.0000   1.0000   1.0000   1.0000   1.0000   1.0000   1.0000   1.0000
     1.0000   1.0000   1.0000   1.0000   1.0000   1.0000   1.0000   1.0000
     1.0000   1.0000   1.0000   1.0000   1.0000   1.0000   1.0000   1.0000
     1.0000   1.0000   1.0000   1.0000   1.0000   1.0000   1.0000   1.0000
     1.0000   1.0000   1.0000   1.0000   1.0000   1.0000   1.0000   1.0000
     1.0000   1.0000   1.0000   1.0000   1.0000   1.0000   1.0000   1.0000
     1.0000   1.0000   1.0000   1.0000   1.0000   1.0000   1.0000   1.0000
     1.0000   1.0000   1.0000   1.0000   1.0000   1.0000   1.0000   1.0000
     1.0000   1.0000   1.0000   1.0000   0.9513   0.8964   0.0000   0.0000
     0.0000   0.0000   0.0000   0.0000   0.0000   0.0000   0.0000   0.0000
     0.0000   0.0000   0.0000   0.0000   0.0000

          k = 0.0000 0.2000 0.4243 ( 10071 PWs)   bands (ev):

   -48.9288 -48.9282 -48.9266 -48.9260 -23.2346 -23.2327 -23.2309 -23.2295
   -23.2294 -23.2176 -23.2018 -23.1928 -23.1715 -23.1698 -23.1680 -23.1668
   -22.1042 -22.0959 -22.0803 -22.0761  -6.7578  -6.7023  -6.1263  -5.9969
    -5.9745  -5.9391  -5.8491  -5.7242  -5.6651  -5.5938  -5.5414  -5.5016
    -4.2779  -4.1980  -4.1483  -4.1309  -4.1038  -4.0773  -4.0385  -3.9668
    -3.9597  -3.9113  -3.8486  -3.7983   5.4278   5.4333   5.6248   5.6260
     5.8743   6.0385   6.1747   6.3485   6.5332   6.5782   6.7364   6.8104
     6.9326   7.1493   7.3956   7.4371   7.4507   7.5642   7.7357   7.8056
     8.0977   8.1141   8.6522   8.7867   9.0222   9.0676   9.1859   9.2277
     9.2584   9.3092   9.3408   9.4009   9.7156   9.7722  10.0575  10.0788
    12.2819  12.3418  12.8394  12.8661  13.5539  13.5706  14.4243  14.4452
    14.7449  14.7589  14.9609  15.0434  16.1279  16.1288  16.5603  16.5951
    16.8192  17.0960  17.1037  17.1956  17.4704

     occupation numbers 
     1.0000   1.0000   1.0000   1.0000   1.0000   1.0000   1.0000   1.0000
     1.0000   1.0000   1.0000   1.0000   1.0000   1.0000   1.0000   1.0000
     1.0000   1.0000   1.0000   1.0000   1.0000   1.0000   1.0000   1.0000
     1.0000   1.0000   1.0000   1.0000   1.0000   1.0000   1.0000   1.0000
     1.0000   1.0000   1.0000   1.0000   1.0000   1.0000   1.0000   1.0000
     1.0000   1.0000   1.0000   1.0000   1.0000   1.0000   1.0000   1.0000
     1.0000   1.0000   1.0000   1.0000   1.0000   1.0000   1.0000   1.0000
     1.0000   1.0000   1.0000   1.0000   1.0000   1.0000   1.0000   1.0000
     1.0000   1.0000   1.0000   1.0000   1.0000   1.0000   1.0000   1.0000
     1.0000   1.0000   1.0000   1.0000   1.0000   1.0000   1.0000   1.0000
     1.0000   1.0000   1.0000   1.0000   0.9513   0.8964   0.0000   0.0000
     0.0000   0.0000   0.0000   0.0000   0.0000   0.0000   0.0000   0.0000
     0.0000   0.0000   0.0000   0.0000   0.0000

          k = 0.0000 0.2000 0.5657 ( 10060 PWs)   bands (ev):

   -48.9292 -48.9279 -48.9269 -48.9255 -23.2517 -23.2375 -23.2359 -23.2319
   -23.2311 -23.2285 -23.1792 -23.1728 -23.1727 -23.1689 -23.1682 -23.1660
   -22.1110 -22.0894 -22.0837 -22.0727  -6.8232  -6.7047  -6.3277  -6.0230
    -6.0141  -5.9546  -5.7518  -5.6898  -5.6381  -5.4954  -5.4242  -5.4172
    -4.2946  -4.2915  -4.1341  -4.1281  -4.1161  -4.1063  -4.0805  -4.0078
    -4.0052  -3.8408  -3.7740  -3.7136   5.4235   5.4378   5.4396   5.5247
     5.5968   5.7332   5.8571   6.1923   6.3547   6.3559   6.9527   7.0734
     7.1262   7.3047   7.3939   7.5449   7.6136   7.6189   7.6849   8.3455
     8.5001   8.5064   8.5856   8.8308   8.8770   8.9682   9.0078   9.0954
     9.2146   9.2220   9.4281   9.4282   9.9872   9.9941  10.0456  10.1230
    12.1739  12.2880  12.2917  12.3889  14.1200  14.1566  14.2086  14.2437
    14.8960  15.0475  15.0995  15.1123  16.1181  16.1252  16.1293  16.1481
    16.1910  16.5100  16.9918  17.5288  17.5377

     occupation numbers 
     1.0000   1.0000   1.0000   1.0000   1.0000   1.0000   1.0000   1.0000
     1.0000   1.0000   1.0000   1.0000   1.0000   1.0000   1.0000   1.0000
     1.0000   1.0000   1.0000   1.0000   1.0000   1.0000   1.0000   1.0000
     1.0000   1.0000   1.0000   1.0000   1.0000   1.0000   1.0000   1.0000
     1.0000   1.0000   1.0000   1.0000   1.0000   1.0000   1.0000   1.0000
     1.0000   1.0000   1.0000   1.0000   1.0000   1.0000   1.0000   1.0000
     1.0000   1.0000   1.0000   1.0000   1.0000   1.0000   1.0000   1.0000
     1.0000   1.0000   1.0000   1.0000   1.0000   1.0000   1.0000   1.0000
     1.0000   1.0000   1.0000   1.0000   1.0000   1.0000   1.0000   1.0000
     1.0000   1.0000   1.0000   1.0000   1.0000   1.0000   1.0000   1.0000
     1.0000   1.0000   1.0000   1.0000   0.0000   0.0000   0.0000   0.0000
     0.0000   0.0000   0.0000   0.0000   0.0000   0.0000   0.0000   0.0000
     0.0000   0.0000   0.0000   0.0000   0.0000

          k = 0.0000 0.4000 0.0000 ( 10072 PWs)   bands (ev):

   -48.9285 -48.9279 -48.9270 -48.9263 -23.2540 -23.2484 -23.2204 -23.2130
   -23.2118 -23.2090 -23.1964 -23.1888 -23.1879 -23.1850 -23.1683 -23.1663
   -22.1005 -22.0897 -22.0838 -22.0779  -6.6918  -6.5930  -6.5095  -6.0284
    -5.9412  -5.9160  -5.8502  -5.7770  -5.7491  -5.5540  -5.5415  -5.5375
    -4.2955  -4.2091  -4.1316  -4.0928  -4.0338  -3.9922  -3.9386  -3.9140
    -3.8816  -3.8606  -3.8073  -3.7905   5.2650   5.2689   6.0609   6.0901
     6.1218   6.1466   6.2670   6.3875   6.4636   6.4978   6.7783   6.8154
     6.8630   6.9547   7.0131   7.0613   7.4202   7.5740   7.6223   7.6452
     7.8751   8.1794   8.4647   8.6808   8.7940   8.9572   8.9663   9.1358
     9.2257   9.2536   9.3802   9.4775   9.5558   9.7048   9.7140   9.9410
    12.6628  12.8620  13.1922  13.4116  13.4886  13.6378  14.1201  14.3945
    14.5014  14.5557  14.8159  14.9022  16.0744  16.4089  16.7655  16.9000
    17.3383  17.4968  17.5556  17.5958  17.9109

     occupation numbers 
     1.0000   1.0000   1.0000   1.0000   1.0000   1.0000   1.0000   1.0000
     1.0000   1.0000   1.0000   1.0000   1.0000   1.0000   1.0000   1.0000
     1.0000   1.0000   1.0000   1.0000   1.0000   1.0000   1.0000   1.0000
     1.0000   1.0000   1.0000   1.0000   1.0000   1.0000   1.0000   1.0000
     1.0000   1.0000   1.0000   1.0000   1.0000   1.0000   1.0000   1.0000
     1.0000   1.0000   1.0000   1.0000   1.0000   1.0000   1.0000   1.0000
     1.0000   1.0000   1.0000   1.0000   1.0000   1.0000   1.0000   1.0000
     1.0000   1.0000   1.0000   1.0000   1.0000   1.0000   1.0000   1.0000
     1.0000   1.0000   1.0000   1.0000   1.0000   1.0000   1.0000   1.0000
     1.0000   1.0000   1.0000   1.0000   1.0000   1.0000   1.0000   1.0000
     1.0000   1.0000   1.0000   1.0000   0.9979   0.2434   0.0000   0.0000
     0.0000   0.0000   0.0000   0.0000   0.0000   0.0000   0.0000   0.0000
     0.0000   0.0000   0.0000   0.0000   0.0000

          k = 0.0000 0.4000 0.1414 ( 10078 PWs)   bands (ev):

   -48.9285 -48.9276 -48.9274 -48.9263 -23.2461 -23.2407 -23.2195 -23.2125
   -23.2125 -23.2092 -23.1958 -23.1888 -23.1885 -23.1854 -23.1766 -23.1742
   -22.0989 -22.0885 -22.0854 -22.0790  -6.6427  -6.5265  -6.4987  -6.0552
    -5.9279  -5.9193  -5.8347  -5.7863  -5.7431  -5.6116  -5.5880  -5.5846
    -4.2545  -4.1926  -4.1394  -4.1229  -4.0529  -4.0469  -3.9438  -3.9235
    -3.8743  -3.8545  -3.7813  -3.7751   5.5158   5.5179   6.0627   6.0886
     6.1234   6.1425   6.3337   6.4770   6.5180   6.5342   6.7608   6.8339
     6.8399   7.0057   7.0107   7.0757   7.2114   7.4305   7.4305   7.5765
     7.8450   7.9134   8.3388   8.4983   8.9081   8.9982   9.1345   9.1578
     9.1670   9.2514   9.3845   9.5031   9.5496   9.6737   9.7045   9.9159
    12.8050  12.9701  13.2177  13.3986  13.5721  13.7087  14.1424  14.3161
    14.3384  14.3678  14.6660  14.7128  16.5142  16.8488  16.8860  17.0040
    17.3393  17.5068  17.5546  17.6738  17.9141

     occupation numbers 
     1.0000   1.0000   1.0000   1.0000   1.0000   1.0000   1.0000   1.0000
     1.0000   1.0000   1.0000   1.0000   1.0000   1.0000   1.0000   1.0000
     1.0000   1.0000   1.0000   1.0000   1.0000   1.0000   1.0000   1.0000
     1.0000   1.0000   1.0000   1.0000   1.0000   1.0000   1.0000   1.0000
     1.0000   1.0000   1.0000   1.0000   1.0000   1.0000   1.0000   1.0000
     1.0000   1.0000   1.0000   1.0000   1.0000   1.0000   1.0000   1.0000
     1.0000   1.0000   1.0000   1.0000   1.0000   1.0000   1.0000   1.0000
     1.0000   1.0000   1.0000   1.0000   1.0000   1.0000   1.0000   1.0000
     1.0000   1.0000   1.0000   1.0000   1.0000   1.0000   1.0000   1.0000
     1.0000   1.0000   1.0000   1.0000   1.0000   1.0000   1.0000   1.0000
     1.0000   1.0000   1.0000   1.0000   0.8891   0.0099   0.0000   0.0000
     0.0000   0.0000   0.0000   0.0000   0.0000   0.0000   0.0000   0.0000
     0.0000   0.0000   0.0000   0.0000   0.0000

          k = 0.0000 0.4000 0.2828 ( 10090 PWs)   bands (ev):

   -48.9284 -48.9276 -48.9274 -48.9265 -23.2252 -23.2207 -23.2174 -23.2143
   -23.2116 -23.2102 -23.1996 -23.1952 -23.1923 -23.1903 -23.1876 -23.1863
   -22.0947 -22.0895 -22.0856 -22.0820  -6.5420  -6.4906  -6.3545  -6.1647
    -5.8930  -5.8920  -5.8475  -5.7762  -5.7518  -5.7158  -5.6692  -5.6681
    -4.1649  -4.1640  -4.1634  -4.1541  -4.0744  -4.0713  -4.0223  -4.0132
    -3.8060  -3.8047  -3.7749  -3.7705   6.0611   6.0802   6.1281   6.1333
     6.1346   6.1349   6.5306   6.5410   6.5866   6.7380   6.7401   6.8206
     6.8420   6.9543   7.0005   7.0008   7.0604   7.1837   7.1840   7.4968
     7.4970   7.5313   7.8090   7.9353   9.1616   9.1851   9.2106   9.2163
     9.3026   9.3576   9.4706   9.5212   9.5263   9.5392   9.7280   9.8277
    13.1978  13.3094  13.3114  13.3400  13.8102  13.8305  13.8637  13.9351
    14.2208  14.2656  14.3074  14.3148  17.2245  17.2793  17.4183  17.5085
    17.5131  17.5537  17.5897  17.6764  17.7006

     occupation numbers 
     1.0000   1.0000   1.0000   1.0000   1.0000   1.0000   1.0000   1.0000
     1.0000   1.0000   1.0000   1.0000   1.0000   1.0000   1.0000   1.0000
     1.0000   1.0000   1.0000   1.0000   1.0000   1.0000   1.0000   1.0000
     1.0000   1.0000   1.0000   1.0000   1.0000   1.0000   1.0000   1.0000
     1.0000   1.0000   1.0000   1.0000   1.0000   1.0000   1.0000   1.0000
     1.0000   1.0000   1.0000   1.0000   1.0000   1.0000   1.0000   1.0000
     1.0000   1.0000   1.0000   1.0000   1.0000   1.0000   1.0000   1.0000
     1.0000   1.0000   1.0000   1.0000   1.0000   1.0000   1.0000   1.0000
     1.0000   1.0000   1.0000   1.0000   1.0000   1.0000   1.0000   1.0000
     1.0000   1.0000   1.0000   1.0000   1.0000   1.0000   1.0000   1.0000
     1.0000   1.0000   1.0000   1.0000   0.0001   0.0000   0.0000   0.0000
     0.0000   0.0000   0.0000   0.0000   0.0000   0.0000   0.0000   0.0000
     0.0000   0.0000   0.0000   0.0000   0.0000

          k = 0.0000 0.4000 0.4243 ( 10090 PWs)   bands (ev):

   -48.9284 -48.9276 -48.9274 -48.9265 -23.2252 -23.2207 -23.2174 -23.2143
   -23.2116 -23.2102 -23.1996 -23.1952 -23.1923 -23.1903 -23.1876 -23.1863
   -22.0947 -22.0895 -22.0856 -22.0820  -6.5420  -6.4906  -6.3545  -6.1647
    -5.8930  -5.8920  -5.8475  -5.7762  -5.7518  -5.7158  -5.6692  -5.6681
    -4.1649  -4.1640  -4.1634  -4.1541  -4.0744  -4.0713  -4.0223  -4.0132
    -3.8060  -3.8047  -3.7749  -3.7705   6.0611   6.0802   6.1281   6.1333
     6.1346   6.1349   6.5306   6.5410   6.5866   6.7380   6.7401   6.8206
     6.8420   6.9543   7.0005   7.0008   7.0604   7.1837   7.1840   7.4968
     7.4970   7.5313   7.8090   7.9353   9.1616   9.1851   9.2106   9.2163
     9.3026   9.3576   9.4706   9.5212   9.5263   9.5392   9.7280   9.8277
    13.1978  13.3094  13.3114  13.3400  13.8102  13.8305  13.8637  13.9351
    14.2208  14.2656  14.3074  14.3148  17.2245  17.2793  17.4183  17.5085
    17.5131  17.5537  17.5897  17.6764  17.7006

     occupation numbers 
     1.0000   1.0000   1.0000   1.0000   1.0000   1.0000   1.0000   1.0000
     1.0000   1.0000   1.0000   1.0000   1.0000   1.0000   1.0000   1.0000
     1.0000   1.0000   1.0000   1.0000   1.0000   1.0000   1.0000   1.0000
     1.0000   1.0000   1.0000   1.0000   1.0000   1.0000   1.0000   1.0000
     1.0000   1.0000   1.0000   1.0000   1.0000   1.0000   1.0000   1.0000
     1.0000   1.0000   1.0000   1.0000   1.0000   1.0000   1.0000   1.0000
     1.0000   1.0000   1.0000   1.0000   1.0000   1.0000   1.0000   1.0000
     1.0000   1.0000   1.0000   1.0000   1.0000   1.0000   1.0000   1.0000
     1.0000   1.0000   1.0000   1.0000   1.0000   1.0000   1.0000   1.0000
     1.0000   1.0000   1.0000   1.0000   1.0000   1.0000   1.0000   1.0000
     1.0000   1.0000   1.0000   1.0000   0.0001   0.0000   0.0000   0.0000
     0.0000   0.0000   0.0000   0.0000   0.0000   0.0000   0.0000   0.0000
     0.0000   0.0000   0.0000   0.0000   0.0000

          k = 0.0000 0.4000 0.5657 ( 10078 PWs)   bands (ev):

   -48.9285 -48.9276 -48.9274 -48.9263 -23.2461 -23.2407 -23.2195 -23.2125
   -23.2125 -23.2092 -23.1958 -23.1888 -23.1885 -23.1854 -23.1766 -23.1742
   -22.0989 -22.0885 -22.0854 -22.0790  -6.6427  -6.5265  -6.4987  -6.0552
    -5.9279  -5.9193  -5.8347  -5.7863  -5.7431  -5.6116  -5.5880  -5.5846
    -4.2545  -4.1926  -4.1394  -4.1229  -4.0529  -4.0469  -3.9438  -3.9235
    -3.8743  -3.8545  -3.7813  -3.7751   5.5158   5.5179   6.0627   6.0886
     6.1234   6.1425   6.3337   6.4770   6.5180   6.5342   6.7608   6.8339
     6.8399   7.0057   7.0107   7.0757   7.2114   7.4305   7.4305   7.5765
     7.8450   7.9134   8.3388   8.4983   8.9081   8.9982   9.1345   9.1578
     9.1670   9.2514   9.3845   9.5031   9.5496   9.6737   9.7045   9.9159
    12.8050  12.9701  13.2177  13.3986  13.5721  13.7087  14.1424  14.3161
    14.3384  14.3678  14.6660  14.7128  16.5142  16.8488  16.8860  17.0040
    17.3393  17.5068  17.5546  17.6738  17.9141

     occupation numbers 
     1.0000   1.0000   1.0000   1.0000   1.0000   1.0000   1.0000   1.0000
     1.0000   1.0000   1.0000   1.0000   1.0000   1.0000   1.0000   1.0000
     1.0000   1.0000   1.0000   1.0000   1.0000   1.0000   1.0000   1.0000
     1.0000   1.0000   1.0000   1.0000   1.0000   1.0000   1.0000   1.0000
     1.0000   1.0000   1.0000   1.0000   1.0000   1.0000   1.0000   1.0000
     1.0000   1.0000   1.0000   1.0000   1.0000   1.0000   1.0000   1.0000
     1.0000   1.0000   1.0000   1.0000   1.0000   1.0000   1.0000   1.0000
     1.0000   1.0000   1.0000   1.0000   1.0000   1.0000   1.0000   1.0000
     1.0000   1.0000   1.0000   1.0000   1.0000   1.0000   1.0000   1.0000
     1.0000   1.0000   1.0000   1.0000   1.0000   1.0000   1.0000   1.0000
     1.0000   1.0000   1.0000   1.0000   0.8891   0.0099   0.0000   0.0000
     0.0000   0.0000   0.0000   0.0000   0.0000   0.0000   0.0000   0.0000
     0.0000   0.0000   0.0000   0.0000   0.0000

          k = 0.0000 0.6000 0.0000 ( 10072 PWs)   bands (ev):

   -48.9285 -48.9279 -48.9270 -48.9263 -23.2540 -23.2484 -23.2204 -23.2130
   -23.2118 -23.2090 -23.1964 -23.1888 -23.1879 -23.1850 -23.1683 -23.1663
   -22.1005 -22.0897 -22.0838 -22.0779  -6.6918  -6.5930  -6.5095  -6.0284
    -5.9412  -5.9160  -5.8502  -5.7770  -5.7491  -5.5540  -5.5415  -5.5375
    -4.2955  -4.2091  -4.1316  -4.0928  -4.0338  -3.9922  -3.9386  -3.9140
    -3.8816  -3.8606  -3.8073  -3.7905   5.2650   5.2689   6.0609   6.0901
     6.1218   6.1466   6.2670   6.3875   6.4636   6.4978   6.7783   6.8154
     6.8630   6.9547   7.0131   7.0613   7.4202   7.5740   7.6223   7.6452
     7.8751   8.1794   8.4647   8.6808   8.7940   8.9572   8.9663   9.1358
     9.2257   9.2536   9.3802   9.4775   9.5558   9.7048   9.7140   9.9410
    12.6628  12.8620  13.1922  13.4116  13.4886  13.6378  14.1201  14.3945
    14.5014  14.5557  14.8159  14.9022  16.0744  16.4089  16.7655  16.9000
    17.3383  17.4968  17.5556  17.5958  17.9109

     occupation numbers 
     1.0000   1.0000   1.0000   1.0000   1.0000   1.0000   1.0000   1.0000
     1.0000   1.0000   1.0000   1.0000   1.0000   1.0000   1.0000   1.0000
     1.0000   1.0000   1.0000   1.0000   1.0000   1.0000   1.0000   1.0000
     1.0000   1.0000   1.0000   1.0000   1.0000   1.0000   1.0000   1.0000
     1.0000   1.0000   1.0000   1.0000   1.0000   1.0000   1.0000   1.0000
     1.0000   1.0000   1.0000   1.0000   1.0000   1.0000   1.0000   1.0000
     1.0000   1.0000   1.0000   1.0000   1.0000   1.0000   1.0000   1.0000
     1.0000   1.0000   1.0000   1.0000   1.0000   1.0000   1.0000   1.0000
     1.0000   1.0000   1.0000   1.0000   1.0000   1.0000   1.0000   1.0000
     1.0000   1.0000   1.0000   1.0000   1.0000   1.0000   1.0000   1.0000
     1.0000   1.0000   1.0000   1.0000   0.9979   0.2434   0.0000   0.0000
     0.0000   0.0000   0.0000   0.0000   0.0000   0.0000   0.0000   0.0000
     0.0000   0.0000   0.0000   0.0000   0.0000

          k = 0.0000 0.6000 0.1414 ( 10078 PWs)   bands (ev):

   -48.9285 -48.9276 -48.9274 -48.9263 -23.2461 -23.2407 -23.2195 -23.2125
   -23.2125 -23.2092 -23.1958 -23.1888 -23.1885 -23.1854 -23.1766 -23.1742
   -22.0989 -22.0885 -22.0854 -22.0790  -6.6427  -6.5265  -6.4987  -6.0552
    -5.9279  -5.9193  -5.8347  -5.7863  -5.7431  -5.6116  -5.5880  -5.5846
    -4.2545  -4.1926  -4.1394  -4.1229  -4.0529  -4.0469  -3.9438  -3.9235
    -3.8743  -3.8545  -3.7813  -3.7751   5.5158   5.5179   6.0627   6.0886
     6.1234   6.1425   6.3337   6.4770   6.5180   6.5342   6.7608   6.8339
     6.8399   7.0057   7.0107   7.0757   7.2114   7.4305   7.4305   7.5765
     7.8450   7.9134   8.3388   8.4983   8.9081   8.9982   9.1345   9.1578
     9.1670   9.2514   9.3845   9.5031   9.5496   9.6737   9.7045   9.9159
    12.8050  12.9701  13.2177  13.3986  13.5721  13.7087  14.1424  14.3161
    14.3384  14.3678  14.6660  14.7128  16.5142  16.8488  16.8860  17.0040
    17.3393  17.5068  17.5546  17.6738  17.9141

     occupation numbers 
     1.0000   1.0000   1.0000   1.0000   1.0000   1.0000   1.0000   1.0000
     1.0000   1.0000   1.0000   1.0000   1.0000   1.0000   1.0000   1.0000
     1.0000   1.0000   1.0000   1.0000   1.0000   1.0000   1.0000   1.0000
     1.0000   1.0000   1.0000   1.0000   1.0000   1.0000   1.0000   1.0000
     1.0000   1.0000   1.0000   1.0000   1.0000   1.0000   1.0000   1.0000
     1.0000   1.0000   1.0000   1.0000   1.0000   1.0000   1.0000   1.0000
     1.0000   1.0000   1.0000   1.0000   1.0000   1.0000   1.0000   1.0000
     1.0000   1.0000   1.0000   1.0000   1.0000   1.0000   1.0000   1.0000
     1.0000   1.0000   1.0000   1.0000   1.0000   1.0000   1.0000   1.0000
     1.0000   1.0000   1.0000   1.0000   1.0000   1.0000   1.0000   1.0000
     1.0000   1.0000   1.0000   1.0000   0.8891   0.0099   0.0000   0.0000
     0.0000   0.0000   0.0000   0.0000   0.0000   0.0000   0.0000   0.0000
     0.0000   0.0000   0.0000   0.0000   0.0000

          k = 0.0000 0.6000 0.2828 ( 10090 PWs)   bands (ev):

   -48.9284 -48.9276 -48.9274 -48.9265 -23.2252 -23.2207 -23.2174 -23.2143
   -23.2116 -23.2102 -23.1996 -23.1952 -23.1923 -23.1903 -23.1876 -23.1863
   -22.0947 -22.0895 -22.0856 -22.0820  -6.5420  -6.4906  -6.3545  -6.1647
    -5.8930  -5.8920  -5.8475  -5.7762  -5.7518  -5.7158  -5.6692  -5.6681
    -4.1649  -4.1640  -4.1634  -4.1541  -4.0744  -4.0713  -4.0223  -4.0132
    -3.8060  -3.8047  -3.7749  -3.7705   6.0611   6.0802   6.1281   6.1333
     6.1346   6.1349   6.5306   6.5410   6.5866   6.7380   6.7401   6.8206
     6.8420   6.9543   7.0005   7.0008   7.0604   7.1837   7.1840   7.4968
     7.4970   7.5313   7.8090   7.9353   9.1616   9.1851   9.2106   9.2163
     9.3026   9.3576   9.4706   9.5212   9.5263   9.5392   9.7280   9.8277
    13.1978  13.3094  13.3114  13.3400  13.8102  13.8305  13.8637  13.9351
    14.2208  14.2656  14.3074  14.3148  17.2245  17.2793  17.4183  17.5085
    17.5131  17.5537  17.5897  17.6764  17.7006

     occupation numbers 
     1.0000   1.0000   1.0000   1.0000   1.0000   1.0000   1.0000   1.0000
     1.0000   1.0000   1.0000   1.0000   1.0000   1.0000   1.0000   1.0000
     1.0000   1.0000   1.0000   1.0000   1.0000   1.0000   1.0000   1.0000
     1.0000   1.0000   1.0000   1.0000   1.0000   1.0000   1.0000   1.0000
     1.0000   1.0000   1.0000   1.0000   1.0000   1.0000   1.0000   1.0000
     1.0000   1.0000   1.0000   1.0000   1.0000   1.0000   1.0000   1.0000
     1.0000   1.0000   1.0000   1.0000   1.0000   1.0000   1.0000   1.0000
     1.0000   1.0000   1.0000   1.0000   1.0000   1.0000   1.0000   1.0000
     1.0000   1.0000   1.0000   1.0000   1.0000   1.0000   1.0000   1.0000
     1.0000   1.0000   1.0000   1.0000   1.0000   1.0000   1.0000   1.0000
     1.0000   1.0000   1.0000   1.0000   0.0001   0.0000   0.0000   0.0000
     0.0000   0.0000   0.0000   0.0000   0.0000   0.0000   0.0000   0.0000
     0.0000   0.0000   0.0000   0.0000   0.0000

          k = 0.0000 0.6000 0.4243 ( 10090 PWs)   bands (ev):

   -48.9284 -48.9276 -48.9274 -48.9265 -23.2252 -23.2207 -23.2174 -23.2143
   -23.2116 -23.2102 -23.1996 -23.1952 -23.1923 -23.1903 -23.1876 -23.1863
   -22.0947 -22.0895 -22.0856 -22.0820  -6.5420  -6.4906  -6.3545  -6.1647
    -5.8930  -5.8920  -5.8475  -5.7762  -5.7518  -5.7158  -5.6692  -5.6681
    -4.1649  -4.1640  -4.1634  -4.1541  -4.0744  -4.0713  -4.0223  -4.0132
    -3.8060  -3.8047  -3.7749  -3.7705   6.0611   6.0802   6.1281   6.1333
     6.1346   6.1349   6.5306   6.5410   6.5866   6.7380   6.7401   6.8206
     6.8420   6.9543   7.0005   7.0008   7.0604   7.1837   7.1840   7.4968
     7.4970   7.5313   7.8090   7.9353   9.1616   9.1851   9.2106   9.2163
     9.3026   9.3576   9.4706   9.5212   9.5263   9.5392   9.7280   9.8277
    13.1978  13.3094  13.3114  13.3400  13.8102  13.8305  13.8637  13.9351
    14.2208  14.2656  14.3074  14.3148  17.2245  17.2793  17.4183  17.5085
    17.5131  17.5537  17.5897  17.6764  17.7006

     occupation numbers 
     1.0000   1.0000   1.0000   1.0000   1.0000   1.0000   1.0000   1.0000
     1.0000   1.0000   1.0000   1.0000   1.0000   1.0000   1.0000   1.0000
     1.0000   1.0000   1.0000   1.0000   1.0000   1.0000   1.0000   1.0000
     1.0000   1.0000   1.0000   1.0000   1.0000   1.0000   1.0000   1.0000
     1.0000   1.0000   1.0000   1.0000   1.0000   1.0000   1.0000   1.0000
     1.0000   1.0000   1.0000   1.0000   1.0000   1.0000   1.0000   1.0000
     1.0000   1.0000   1.0000   1.0000   1.0000   1.0000   1.0000   1.0000
     1.0000   1.0000   1.0000   1.0000   1.0000   1.0000   1.0000   1.0000
     1.0000   1.0000   1.0000   1.0000   1.0000   1.0000   1.0000   1.0000
     1.0000   1.0000   1.0000   1.0000   1.0000   1.0000   1.0000   1.0000
     1.0000   1.0000   1.0000   1.0000   0.0001   0.0000   0.0000   0.0000
     0.0000   0.0000   0.0000   0.0000   0.0000   0.0000   0.0000   0.0000
     0.0000   0.0000   0.0000   0.0000   0.0000

          k = 0.0000 0.6000 0.5657 ( 10078 PWs)   bands (ev):

   -48.9285 -48.9276 -48.9274 -48.9263 -23.2461 -23.2407 -23.2195 -23.2125
   -23.2125 -23.2092 -23.1958 -23.1888 -23.1885 -23.1854 -23.1766 -23.1742
   -22.0989 -22.0885 -22.0854 -22.0790  -6.6427  -6.5265  -6.4987  -6.0552
    -5.9279  -5.9193  -5.8347  -5.7863  -5.7431  -5.6116  -5.5880  -5.5846
    -4.2545  -4.1926  -4.1394  -4.1229  -4.0529  -4.0469  -3.9438  -3.9235
    -3.8743  -3.8545  -3.7813  -3.7751   5.5158   5.5179   6.0627   6.0886
     6.1234   6.1425   6.3337   6.4770   6.5180   6.5342   6.7608   6.8339
     6.8399   7.0057   7.0107   7.0757   7.2114   7.4305   7.4305   7.5765
     7.8450   7.9134   8.3388   8.4983   8.9081   8.9982   9.1345   9.1578
     9.1670   9.2514   9.3845   9.5031   9.5496   9.6737   9.7045   9.9159
    12.8050  12.9701  13.2177  13.3986  13.5721  13.7087  14.1424  14.3161
    14.3384  14.3678  14.6660  14.7128  16.5142  16.8488  16.8860  17.0040
    17.3393  17.5068  17.5546  17.6738  17.9141

     occupation numbers 
     1.0000   1.0000   1.0000   1.0000   1.0000   1.0000   1.0000   1.0000
     1.0000   1.0000   1.0000   1.0000   1.0000   1.0000   1.0000   1.0000
     1.0000   1.0000   1.0000   1.0000   1.0000   1.0000   1.0000   1.0000
     1.0000   1.0000   1.0000   1.0000   1.0000   1.0000   1.0000   1.0000
     1.0000   1.0000   1.0000   1.0000   1.0000   1.0000   1.0000   1.0000
     1.0000   1.0000   1.0000   1.0000   1.0000   1.0000   1.0000   1.0000
     1.0000   1.0000   1.0000   1.0000   1.0000   1.0000   1.0000   1.0000
     1.0000   1.0000   1.0000   1.0000   1.0000   1.0000   1.0000   1.0000
     1.0000   1.0000   1.0000   1.0000   1.0000   1.0000   1.0000   1.0000
     1.0000   1.0000   1.0000   1.0000   1.0000   1.0000   1.0000   1.0000
     1.0000   1.0000   1.0000   1.0000   0.8891   0.0099   0.0000   0.0000
     0.0000   0.0000   0.0000   0.0000   0.0000   0.0000   0.0000   0.0000
     0.0000   0.0000   0.0000   0.0000   0.0000

          k = 0.0000 0.8000 0.0000 ( 10076 PWs)   bands (ev):

   -48.9292 -48.9277 -48.9273 -48.9255 -23.2600 -23.2452 -23.2365 -23.2324
   -23.2306 -23.2282 -23.1735 -23.1701 -23.1693 -23.1684 -23.1656 -23.1644
   -22.1137 -22.0869 -22.0850 -22.0714  -6.8502  -6.7225  -6.4032  -6.0367
    -6.0205  -5.9459  -5.7834  -5.7141  -5.5423  -5.4112  -5.4056  -5.3598
    -4.3615  -4.2623  -4.1959  -4.1357  -4.1155  -4.1139  -4.0653  -4.0415
    -3.9914  -3.7976  -3.7509  -3.6826   5.2360   5.2748   5.4219   5.4395
     5.5743   5.6896   5.8186   6.1552   6.2938   6.3669   6.8767   7.2397
     7.2523   7.2980   7.4876   7.4951   7.6357   7.6561   7.7434   8.5510
     8.6018   8.6306   8.6860   8.7842   8.7917   8.8824   8.9305   9.1228
     9.2022   9.3019   9.4619   9.5847  10.0390  10.0418  10.0766  10.1702
    11.9639  12.0684  12.2360  12.4069  14.1358  14.1752  14.3325  14.3898
    14.8736  15.1304  15.1495  15.2663  15.7343  15.9960  16.0365  16.1229
    16.1302  16.3525  16.5853  17.3246  17.4076

     occupation numbers 
     1.0000   1.0000   1.0000   1.0000   1.0000   1.0000   1.0000   1.0000
     1.0000   1.0000   1.0000   1.0000   1.0000   1.0000   1.0000   1.0000
     1.0000   1.0000   1.0000   1.0000   1.0000   1.0000   1.0000   1.0000
     1.0000   1.0000   1.0000   1.0000   1.0000   1.0000   1.0000   1.0000
     1.0000   1.0000   1.0000   1.0000   1.0000   1.0000   1.0000   1.0000
     1.0000   1.0000   1.0000   1.0000   1.0000   1.0000   1.0000   1.0000
     1.0000   1.0000   1.0000   1.0000   1.0000   1.0000   1.0000   1.0000
     1.0000   1.0000   1.0000   1.0000   1.0000   1.0000   1.0000   1.0000
     1.0000   1.0000   1.0000   1.0000   1.0000   1.0000   1.0000   1.0000
     1.0000   1.0000   1.0000   1.0000   1.0000   1.0000   1.0000   1.0000
     1.0000   1.0000   1.0000   1.0000   0.0000   0.0000   0.0000   0.0000
     0.0000   0.0000   0.0000   0.0000   0.0000   0.0000   0.0000   0.0000
     0.0000   0.0000   0.0000   0.0000   0.0000

          k = 0.0000 0.8000 0.1414 ( 10060 PWs)   bands (ev):

   -48.9292 -48.9279 -48.9269 -48.9255 -23.2517 -23.2375 -23.2359 -23.2319
   -23.2311 -23.2285 -23.1792 -23.1728 -23.1727 -23.1689 -23.1682 -23.1660
   -22.1110 -22.0894 -22.0837 -22.0727  -6.8232  -6.7047  -6.3277  -6.0230
    -6.0141  -5.9546  -5.7518  -5.6898  -5.6381  -5.4954  -5.4242  -5.4172
    -4.2946  -4.2915  -4.1341  -4.1281  -4.1161  -4.1063  -4.0805  -4.0078
    -4.0052  -3.8408  -3.7740  -3.7136   5.4235   5.4378   5.4396   5.5247
     5.5968   5.7332   5.8571   6.1923   6.3547   6.3559   6.9527   7.0734
     7.1262   7.3047   7.3939   7.5449   7.6136   7.6189   7.6849   8.3455
     8.5001   8.5064   8.5856   8.8308   8.8770   8.9682   9.0078   9.0954
     9.2146   9.2220   9.4281   9.4282   9.9872   9.9941  10.0456  10.1230
    12.1739  12.2880  12.2917  12.3889  14.1200  14.1566  14.2086  14.2437
    14.8960  15.0475  15.0995  15.1123  16.1181  16.1252  16.1293  16.1481
    16.1910  16.5100  16.9918  17.5288  17.5377

     occupation numbers 
     1.0000   1.0000   1.0000   1.0000   1.0000   1.0000   1.0000   1.0000
     1.0000   1.0000   1.0000   1.0000   1.0000   1.0000   1.0000   1.0000
     1.0000   1.0000   1.0000   1.0000   1.0000   1.0000   1.0000   1.0000
     1.0000   1.0000   1.0000   1.0000   1.0000   1.0000   1.0000   1.0000
     1.0000   1.0000   1.0000   1.0000   1.0000   1.0000   1.0000   1.0000
     1.0000   1.0000   1.0000   1.0000   1.0000   1.0000   1.0000   1.0000
     1.0000   1.0000   1.0000   1.0000   1.0000   1.0000   1.0000   1.0000
     1.0000   1.0000   1.0000   1.0000   1.0000   1.0000   1.0000   1.0000
     1.0000   1.0000   1.0000   1.0000   1.0000   1.0000   1.0000   1.0000
     1.0000   1.0000   1.0000   1.0000   1.0000   1.0000   1.0000   1.0000
     1.0000   1.0000   1.0000   1.0000   0.0000   0.0000   0.0000   0.0000
     0.0000   0.0000   0.0000   0.0000   0.0000   0.0000   0.0000   0.0000
     0.0000   0.0000   0.0000   0.0000   0.0000

          k = 0.0000 0.8000 0.2828 ( 10071 PWs)   bands (ev):

   -48.9288 -48.9282 -48.9266 -48.9260 -23.2346 -23.2327 -23.2309 -23.2295
   -23.2294 -23.2176 -23.2018 -23.1928 -23.1715 -23.1698 -23.1680 -23.1668
   -22.1042 -22.0959 -22.0803 -22.0761  -6.7578  -6.7023  -6.1263  -5.9969
    -5.9745  -5.9391  -5.8491  -5.7242  -5.6651  -5.5938  -5.5414  -5.5016
    -4.2779  -4.1980  -4.1483  -4.1309  -4.1038  -4.0773  -4.0385  -3.9668
    -3.9597  -3.9113  -3.8486  -3.7983   5.4278   5.4333   5.6248   5.6260
     5.8743   6.0385   6.1747   6.3485   6.5332   6.5782   6.7364   6.8104
     6.9326   7.1493   7.3956   7.4371   7.4507   7.5642   7.7357   7.8056
     8.0977   8.1141   8.6522   8.7867   9.0222   9.0676   9.1859   9.2277
     9.2584   9.3092   9.3408   9.4009   9.7156   9.7722  10.0575  10.0788
    12.2819  12.3418  12.8394  12.8661  13.5539  13.5706  14.4243  14.4452
    14.7449  14.7589  14.9609  15.0434  16.1279  16.1288  16.5603  16.5951
    16.8192  17.0960  17.1037  17.1956  17.4704

     occupation numbers 
     1.0000   1.0000   1.0000   1.0000   1.0000   1.0000   1.0000   1.0000
     1.0000   1.0000   1.0000   1.0000   1.0000   1.0000   1.0000   1.0000
     1.0000   1.0000   1.0000   1.0000   1.0000   1.0000   1.0000   1.0000
     1.0000   1.0000   1.0000   1.0000   1.0000   1.0000   1.0000   1.0000
     1.0000   1.0000   1.0000   1.0000   1.0000   1.0000   1.0000   1.0000
     1.0000   1.0000   1.0000   1.0000   1.0000   1.0000   1.0000   1.0000
     1.0000   1.0000   1.0000   1.0000   1.0000   1.0000   1.0000   1.0000
     1.0000   1.0000   1.0000   1.0000   1.0000   1.0000   1.0000   1.0000
     1.0000   1.0000   1.0000   1.0000   1.0000   1.0000   1.0000   1.0000
     1.0000   1.0000   1.0000   1.0000   1.0000   1.0000   1.0000   1.0000
     1.0000   1.0000   1.0000   1.0000   0.9513   0.8964   0.0000   0.0000
     0.0000   0.0000   0.0000   0.0000   0.0000   0.0000   0.0000   0.0000
     0.0000   0.0000   0.0000   0.0000   0.0000

          k = 0.0000 0.8000 0.4243 ( 10071 PWs)   bands (ev):

   -48.9288 -48.9282 -48.9266 -48.9260 -23.2346 -23.2327 -23.2309 -23.2295
   -23.2294 -23.2176 -23.2018 -23.1928 -23.1715 -23.1698 -23.1680 -23.1668
   -22.1042 -22.0959 -22.0803 -22.0761  -6.7578  -6.7023  -6.1263  -5.9969
    -5.9745  -5.9391  -5.8491  -5.7242  -5.6651  -5.5938  -5.5414  -5.5016
    -4.2779  -4.1980  -4.1483  -4.1309  -4.1038  -4.0773  -4.0385  -3.9668
    -3.9597  -3.9113  -3.8486  -3.7983   5.4278   5.4333   5.6248   5.6260
     5.8743   6.0385   6.1747   6.3485   6.5332   6.5782   6.7364   6.8104
     6.9326   7.1493   7.3956   7.4371   7.4507   7.5642   7.7357   7.8056
     8.0977   8.1141   8.6522   8.7867   9.0222   9.0676   9.1859   9.2277
     9.2584   9.3092   9.3408   9.4009   9.7156   9.7722  10.0575  10.0788
    12.2819  12.3418  12.8394  12.8661  13.5539  13.5706  14.4243  14.4452
    14.7449  14.7589  14.9609  15.0434  16.1279  16.1288  16.5603  16.5951
    16.8192  17.0960  17.1037  17.1956  17.4704

     occupation numbers 
     1.0000   1.0000   1.0000   1.0000   1.0000   1.0000   1.0000   1.0000
     1.0000   1.0000   1.0000   1.0000   1.0000   1.0000   1.0000   1.0000
     1.0000   1.0000   1.0000   1.0000   1.0000   1.0000   1.0000   1.0000
     1.0000   1.0000   1.0000   1.0000   1.0000   1.0000   1.0000   1.0000
     1.0000   1.0000   1.0000   1.0000   1.0000   1.0000   1.0000   1.0000
     1.0000   1.0000   1.0000   1.0000   1.0000   1.0000   1.0000   1.0000
     1.0000   1.0000   1.0000   1.0000   1.0000   1.0000   1.0000   1.0000
     1.0000   1.0000   1.0000   1.0000   1.0000   1.0000   1.0000   1.0000
     1.0000   1.0000   1.0000   1.0000   1.0000   1.0000   1.0000   1.0000
     1.0000   1.0000   1.0000   1.0000   1.0000   1.0000   1.0000   1.0000
     1.0000   1.0000   1.0000   1.0000   0.9513   0.8964   0.0000   0.0000
     0.0000   0.0000   0.0000   0.0000   0.0000   0.0000   0.0000   0.0000
     0.0000   0.0000   0.0000   0.0000   0.0000

          k = 0.0000 0.8000 0.5657 ( 10060 PWs)   bands (ev):

   -48.9292 -48.9279 -48.9269 -48.9255 -23.2517 -23.2375 -23.2359 -23.2319
   -23.2311 -23.2285 -23.1792 -23.1728 -23.1727 -23.1689 -23.1682 -23.1660
   -22.1110 -22.0894 -22.0837 -22.0727  -6.8232  -6.7047  -6.3277  -6.0230
    -6.0141  -5.9546  -5.7518  -5.6898  -5.6381  -5.4954  -5.4242  -5.4172
    -4.2946  -4.2915  -4.1341  -4.1281  -4.1161  -4.1063  -4.0805  -4.0078
    -4.0052  -3.8408  -3.7740  -3.7136   5.4235   5.4378   5.4396   5.5247
     5.5968   5.7332   5.8571   6.1923   6.3547   6.3559   6.9527   7.0734
     7.1262   7.3047   7.3939   7.5449   7.6136   7.6189   7.6849   8.3455
     8.5001   8.5064   8.5856   8.8308   8.8770   8.9682   9.0078   9.0954
     9.2146   9.2220   9.4281   9.4282   9.9872   9.9941  10.0456  10.1230
    12.1739  12.2880  12.2917  12.3889  14.1200  14.1566  14.2086  14.2437
    14.8960  15.0475  15.0995  15.1123  16.1181  16.1252  16.1293  16.1481
    16.1910  16.5100  16.9918  17.5288  17.5377

     occupation numbers 
     1.0000   1.0000   1.0000   1.0000   1.0000   1.0000   1.0000   1.0000
     1.0000   1.0000   1.0000   1.0000   1.0000   1.0000   1.0000   1.0000
     1.0000   1.0000   1.0000   1.0000   1.0000   1.0000   1.0000   1.0000
     1.0000   1.0000   1.0000   1.0000   1.0000   1.0000   1.0000   1.0000
     1.0000   1.0000   1.0000   1.0000   1.0000   1.0000   1.0000   1.0000
     1.0000   1.0000   1.0000   1.0000   1.0000   1.0000   1.0000   1.0000
     1.0000   1.0000   1.0000   1.0000   1.0000   1.0000   1.0000   1.0000
     1.0000   1.0000   1.0000   1.0000   1.0000   1.0000   1.0000   1.0000
     1.0000   1.0000   1.0000   1.0000   1.0000   1.0000   1.0000   1.0000
     1.0000   1.0000   1.0000   1.0000   1.0000   1.0000   1.0000   1.0000
     1.0000   1.0000   1.0000   1.0000   0.0000   0.0000   0.0000   0.0000
     0.0000   0.0000   0.0000   0.0000   0.0000   0.0000   0.0000   0.0000
     0.0000   0.0000   0.0000   0.0000   0.0000

          k = 0.2000 0.0000 0.0000 ( 10076 PWs)   bands (ev):

   -48.9292 -48.9277 -48.9273 -48.9255 -23.2600 -23.2452 -23.2346 -23.2343
[...]
    17.1021  17.4819  17.6227  17.7267  17.8946

     occupation numbers 
     1.0000   1.0000   1.0000   1.0000   1.0000   1.0000   1.0000   1.0000
     1.0000   1.0000   1.0000   1.0000   1.0000   1.0000   1.0000   1.0000
     1.0000   1.0000   1.0000   1.0000   1.0000   1.0000   1.0000   1.0000
     1.0000   1.0000   1.0000   1.0000   1.0000   1.0000   1.0000   1.0000
     1.0000   1.0000   1.0000   1.0000   1.0000   1.0000   1.0000   1.0000
     1.0000   1.0000   1.0000   1.0000   1.0000   1.0000   1.0000   1.0000
     1.0000   1.0000   1.0000   1.0000   1.0000   1.0000   1.0000   1.0000
     1.0000   1.0000   1.0000   1.0000   1.0000   1.0000   1.0000   1.0000
     1.0000   1.0000   1.0000   1.0000   1.0000   1.0000   1.0000   1.0000
     1.0000   1.0000   1.0000   1.0000   1.0000   1.0000   1.0000   1.0000
     1.0000   1.0000   0.9246   0.9078   0.0619   0.0000   0.0000   0.0000
     0.0000   0.0000   0.0000   0.0000   0.0000   0.0000   0.0000   0.0000
     0.0000   0.0000   0.0000   0.0000   0.0000

          k = 0.8000 0.6000 0.2828 ( 10093 PWs)   bands (ev):

   -48.9282 -48.9275 -48.9275 -48.9268 -23.2386 -23.2353 -23.2245 -23.2209
   -23.2188 -23.2154 -23.1975 -23.1950 -23.1870 -23.1857 -23.1674 -23.1661
   -22.0926 -22.0886 -22.0853 -22.0826  -6.6369  -6.5242  -6.5024  -6.2927
    -5.9053  -5.8322  -5.7921  -5.7659  -5.7466  -5.6952  -5.6213  -5.6016
    -4.2038  -4.1894  -4.1217  -4.1191  -4.0266  -3.9755  -3.9347  -3.9022
    -3.8067  -3.7914  -3.7805  -3.7744   5.5088   5.5127   6.0358   6.0904
     6.1240   6.1539   6.2947   6.3334   6.5208   6.6732   6.7526   6.8412
     6.9282   7.0077   7.0701   7.1995   7.2199   7.3158   7.4303   7.5079
     7.6456   7.8453   8.3281   8.4198   8.9098   8.9793   9.0123   9.0928
     9.1626   9.2373   9.2549   9.3408   9.4413   9.5010   9.7067   9.8330
    12.9275  13.3948  13.5634  13.6045  13.7131  13.7640  13.9537  14.1392
    14.3254  14.3475  14.4034  14.6124  16.6319  16.8601  17.3604  17.4762
    17.4823  17.7326  17.7603  17.8010  17.8892

     occupation numbers 
     1.0000   1.0000   1.0000   1.0000   1.0000   1.0000   1.0000   1.0000
     1.0000   1.0000   1.0000   1.0000   1.0000   1.0000   1.0000   1.0000
     1.0000   1.0000   1.0000   1.0000   1.0000   1.0000   1.0000   1.0000
     1.0000   1.0000   1.0000   1.0000   1.0000   1.0000   1.0000   1.0000
     1.0000   1.0000   1.0000   1.0000   1.0000   1.0000   1.0000   1.0000
     1.0000   1.0000   1.0000   1.0000   1.0000   1.0000   1.0000   1.0000
     1.0000   1.0000   1.0000   1.0000   1.0000   1.0000   1.0000   1.0000
     1.0000   1.0000   1.0000   1.0000   1.0000   1.0000   1.0000   1.0000
     1.0000   1.0000   1.0000   1.0000   1.0000   1.0000   1.0000   1.0000
     1.0000   1.0000   1.0000   1.0000   1.0000   1.0000   1.0000   1.0000
     1.0000   1.0000   0.9247   0.6213   0.0079   0.0007   0.0000   0.0000
     0.0000   0.0000   0.0000   0.0000   0.0000   0.0000   0.0000   0.0000
     0.0000   0.0000   0.0000   0.0000   0.0000

          k = 0.8000 0.6000 0.4243 ( 10093 PWs)   bands (ev):

   -48.9282 -48.9275 -48.9275 -48.9268 -23.2386 -23.2353 -23.2245 -23.2209
   -23.2188 -23.2154 -23.1975 -23.1950 -23.1870 -23.1857 -23.1674 -23.1661
   -22.0926 -22.0886 -22.0853 -22.0826  -6.6369  -6.5242  -6.5024  -6.2927
    -5.9053  -5.8322  -5.7921  -5.7659  -5.7466  -5.6952  -5.6213  -5.6016
    -4.2038  -4.1894  -4.1217  -4.1191  -4.0266  -3.9755  -3.9347  -3.9022
    -3.8067  -3.7914  -3.7805  -3.7744   5.5088   5.5127   6.0358   6.0904
     6.1240   6.1539   6.2947   6.3334   6.5208   6.6732   6.7526   6.8412
     6.9282   7.0077   7.0701   7.1995   7.2199   7.3158   7.4303   7.5079
     7.6456   7.8453   8.3281   8.4198   8.9098   8.9793   9.0123   9.0928
     9.1626   9.2373   9.2549   9.3408   9.4413   9.5010   9.7067   9.8330
    12.9275  13.3948  13.5634  13.6045  13.7131  13.7640  13.9537  14.1392
    14.3254  14.3475  14.4034  14.6124  16.6319  16.8601  17.3604  17.4762
    17.4823  17.7326  17.7603  17.8010  17.8892

     occupation numbers 
     1.0000   1.0000   1.0000   1.0000   1.0000   1.0000   1.0000   1.0000
     1.0000   1.0000   1.0000   1.0000   1.0000   1.0000   1.0000   1.0000
     1.0000   1.0000   1.0000   1.0000   1.0000   1.0000   1.0000   1.0000
     1.0000   1.0000   1.0000   1.0000   1.0000   1.0000   1.0000   1.0000
     1.0000   1.0000   1.0000   1.0000   1.0000   1.0000   1.0000   1.0000
     1.0000   1.0000   1.0000   1.0000   1.0000   1.0000   1.0000   1.0000
     1.0000   1.0000   1.0000   1.0000   1.0000   1.0000   1.0000   1.0000
     1.0000   1.0000   1.0000   1.0000   1.0000   1.0000   1.0000   1.0000
     1.0000   1.0000   1.0000   1.0000   1.0000   1.0000   1.0000   1.0000
     1.0000   1.0000   1.0000   1.0000   1.0000   1.0000   1.0000   1.0000
     1.0000   1.0000   0.9247   0.6213   0.0079   0.0007   0.0000   0.0000
     0.0000   0.0000   0.0000   0.0000   0.0000   0.0000   0.0000   0.0000
     0.0000   0.0000   0.0000   0.0000   0.0000

          k = 0.8000 0.6000 0.5657 ( 10093 PWs)   bands (ev):

   -48.9284 -48.9278 -48.9272 -48.9265 -23.2450 -23.2408 -23.2405 -23.2327
   -23.2218 -23.2135 -23.1880 -23.1848 -23.1763 -23.1745 -23.1683 -23.1652
   -22.0958 -22.0875 -22.0855 -22.0804  -6.7600  -6.6707  -6.4764  -6.1238
    -5.9734  -5.8747  -5.7929  -5.7349  -5.6641  -5.6457  -5.6015  -5.5746
    -4.2005  -4.1396  -4.1251  -4.1232  -4.0618  -3.9489  -3.9450  -3.8703
    -3.8498  -3.7950  -3.7759  -3.7433   5.4300   5.5101   5.5145   5.6312
     5.8713   5.9715   6.1745   6.2692   6.4472   6.7346   6.8107   7.0715
     7.1280   7.1534   7.1872   7.2843   7.4125   7.4653   7.4831   7.7346
     7.8035   8.3613   8.4802   8.6584   8.8110   8.8328   8.9784   9.0351
     9.0669   9.0670   9.2448   9.3285   9.3901   9.3948   9.8186  10.0519
    12.3405  12.9798  13.5634  13.5679  13.6701  14.1715  14.1794  14.3113
    14.4220  14.4613  14.5476  14.9305  16.1244  16.6607  16.9406  17.0542
    17.1021  17.4819  17.6227  17.7267  17.8946

     occupation numbers 
     1.0000   1.0000   1.0000   1.0000   1.0000   1.0000   1.0000   1.0000
     1.0000   1.0000   1.0000   1.0000   1.0000   1.0000   1.0000   1.0000
     1.0000   1.0000   1.0000   1.0000   1.0000   1.0000   1.0000   1.0000
     1.0000   1.0000   1.0000   1.0000   1.0000   1.0000   1.0000   1.0000
     1.0000   1.0000   1.0000   1.0000   1.0000   1.0000   1.0000   1.0000
     1.0000   1.0000   1.0000   1.0000   1.0000   1.0000   1.0000   1.0000
     1.0000   1.0000   1.0000   1.0000   1.0000   1.0000   1.0000   1.0000
     1.0000   1.0000   1.0000   1.0000   1.0000   1.0000   1.0000   1.0000
     1.0000   1.0000   1.0000   1.0000   1.0000   1.0000   1.0000   1.0000
     1.0000   1.0000   1.0000   1.0000   1.0000   1.0000   1.0000   1.0000
     1.0000   1.0000   0.9246   0.9078   0.0619   0.0000   0.0000   0.0000
     0.0000   0.0000   0.0000   0.0000   0.0000   0.0000   0.0000   0.0000
     0.0000   0.0000   0.0000   0.0000   0.0000

          k = 0.8000 0.8000 0.0000 ( 10069 PWs)   bands (ev):

   -48.9291 -48.9277 -48.9273 -48.9255 -23.2578 -23.2457 -23.2457 -23.2380
   -23.2129 -23.2088 -23.1953 -23.1878 -23.1696 -23.1653 -23.1616 -23.1581
   -22.1083 -22.0865 -22.0853 -22.0739  -6.7705  -6.7501  -6.5402  -6.0423
    -5.8987  -5.8982  -5.8136  -5.6582  -5.6320  -5.4993  -5.4990  -5.4959
    -4.2705  -4.1574  -4.1534  -4.0891  -4.0876  -4.0826  -4.0725  -3.9564
    -3.9423  -3.8480  -3.7368  -3.7086   5.1757   5.2547   5.2706   5.3856
     5.8505   5.9528   6.2280   6.3653   6.4000   6.4686   6.4690   6.9955
     7.0657   7.3246   7.3837   7.4714   7.5637   7.7131   7.7166   8.3202
     8.5247   8.5251   8.5272   8.7279   8.7489   8.8126   8.8234   8.8771
     9.0549   9.3644   9.5934   9.5973   9.8186   9.8231   9.8427  10.2131
    11.7340  12.7271  12.7294  12.8439  13.5883  14.3350  14.3661  14.4628
    14.7352  14.9288  14.9705  15.2232  15.6031  16.2366  16.2671  16.3037
    16.5196  16.5198  17.0948  17.3002  17.8642

     occupation numbers 
     1.0000   1.0000   1.0000   1.0000   1.0000   1.0000   1.0000   1.0000
     1.0000   1.0000   1.0000   1.0000   1.0000   1.0000   1.0000   1.0000
     1.0000   1.0000   1.0000   1.0000   1.0000   1.0000   1.0000   1.0000
     1.0000   1.0000   1.0000   1.0000   1.0000   1.0000   1.0000   1.0000
     1.0000   1.0000   1.0000   1.0000   1.0000   1.0000   1.0000   1.0000
     1.0000   1.0000   1.0000   1.0000   1.0000   1.0000   1.0000   1.0000
     1.0000   1.0000   1.0000   1.0000   1.0000   1.0000   1.0000   1.0000
     1.0000   1.0000   1.0000   1.0000   1.0000   1.0000   1.0000   1.0000
     1.0000   1.0000   1.0000   1.0000   1.0000   1.0000   1.0000   1.0000
     1.0000   1.0000   1.0000   1.0000   1.0000   1.0000   1.0000   1.0000
     1.0000   1.0000   1.0000   1.0000   0.7838   0.0000   0.0000   0.0000
     0.0000   0.0000   0.0000   0.0000   0.0000   0.0000   0.0000   0.0000
     0.0000   0.0000   0.0000   0.0000   0.0000

          k = 0.8000 0.8000 0.1414 ( 10067 PWs)   bands (ev):

   -48.9289 -48.9277 -48.9273 -48.9257 -23.2496 -23.2450 -23.2388 -23.2381
   -23.2126 -23.2092 -23.1947 -23.1884 -23.1780 -23.1731 -23.1612 -23.1584
   -22.1062 -22.0885 -22.0842 -22.0750  -6.7386  -6.7312  -6.4696  -6.0205
    -5.9150  -5.9076  -5.7831  -5.7787  -5.6220  -5.5651  -5.5084  -5.4879
    -4.2987  -4.1410  -4.1239  -4.1046  -4.0917  -4.0654  -4.0407  -3.9682
    -3.9325  -3.8447  -3.7745  -3.7357   5.2387   5.2556   5.5200   5.5787
     5.8944   5.9986   6.2322   6.3522   6.4466   6.4592   6.5890   6.9693
     7.0867   7.0895   7.2322   7.4820   7.4891   7.6559   7.6913   8.1470
     8.3419   8.4037   8.4328   8.7800   8.8129   8.8465   8.9512   9.0751
     9.0867   9.3387   9.3894   9.4581   9.7535   9.8098   9.8452  10.1319
    12.0470  12.7454  12.8292  12.8337  13.6867  14.1191  14.2522  14.4200
    14.7539  14.7746  14.9452  15.1480  15.7871  16.2538  16.4121  16.4419
    16.7143  16.9436  17.1681  17.4926  17.6909

     occupation numbers 
     1.0000   1.0000   1.0000   1.0000   1.0000   1.0000   1.0000   1.0000
     1.0000   1.0000   1.0000   1.0000   1.0000   1.0000   1.0000   1.0000
     1.0000   1.0000   1.0000   1.0000   1.0000   1.0000   1.0000   1.0000
     1.0000   1.0000   1.0000   1.0000   1.0000   1.0000   1.0000   1.0000
     1.0000   1.0000   1.0000   1.0000   1.0000   1.0000   1.0000   1.0000
     1.0000   1.0000   1.0000   1.0000   1.0000   1.0000   1.0000   1.0000
     1.0000   1.0000   1.0000   1.0000   1.0000   1.0000   1.0000   1.0000
     1.0000   1.0000   1.0000   1.0000   1.0000   1.0000   1.0000   1.0000
     1.0000   1.0000   1.0000   1.0000   1.0000   1.0000   1.0000   1.0000
     1.0000   1.0000   1.0000   1.0000   1.0000   1.0000   1.0000   1.0000
     1.0000   1.0000   1.0000   1.0000   0.0284   0.0000   0.0000   0.0000
     0.0000   0.0000   0.0000   0.0000   0.0000   0.0000   0.0000   0.0000
     0.0000   0.0000   0.0000   0.0000   0.0000

          k = 0.8000 0.8000 0.2828 ( 10073 PWs)   bands (ev):

   -48.9286 -48.9280 -48.9269 -48.9262 -23.2432 -23.2407 -23.2279 -23.2183
   -23.2116 -23.2103 -23.2013 -23.1935 -23.1918 -23.1899 -23.1603 -23.1592
   -22.1006 -22.0938 -22.0814 -22.0779  -6.6939  -6.6898  -6.2809  -6.0400
    -5.9341  -5.9253  -5.9128  -5.7589  -5.6747  -5.5763  -5.5578  -5.5364
    -4.2921  -4.2214  -4.1190  -4.1029  -4.0375  -3.9955  -3.9897  -3.9449
    -3.8882  -3.8763  -3.8677  -3.8068   5.2577   5.2582   5.9976   6.0633
     6.1455   6.1612   6.2404   6.3922   6.4654   6.6988   6.7205   6.8179
     6.8636   6.8888   7.0107   7.1987   7.4890   7.5742   7.5828   7.6250
     7.8847   8.1824   8.4642   8.6675   8.8883   8.9543   9.1246   9.2525
     9.2637   9.3162   9.3804   9.4375   9.5565   9.7138   9.8601   9.9386
    12.6609  12.7886  12.8639  13.1919  13.5385  13.7410  13.9748  14.3862
    14.5856  14.8135  14.8433  14.9048  16.0726  16.2019  16.8029  16.8706
    17.2698  17.3481  17.4469  17.5166  17.7741

     occupation numbers 
     1.0000   1.0000   1.0000   1.0000   1.0000   1.0000   1.0000   1.0000
     1.0000   1.0000   1.0000   1.0000   1.0000   1.0000   1.0000   1.0000
     1.0000   1.0000   1.0000   1.0000   1.0000   1.0000   1.0000   1.0000
     1.0000   1.0000   1.0000   1.0000   1.0000   1.0000   1.0000   1.0000
     1.0000   1.0000   1.0000   1.0000   1.0000   1.0000   1.0000   1.0000
     1.0000   1.0000   1.0000   1.0000   1.0000   1.0000   1.0000   1.0000
     1.0000   1.0000   1.0000   1.0000   1.0000   1.0000   1.0000   1.0000
     1.0000   1.0000   1.0000   1.0000   1.0000   1.0000   1.0000   1.0000
     1.0000   1.0000   1.0000   1.0000   1.0000   1.0000   1.0000   1.0000
     1.0000   1.0000   1.0000   1.0000   1.0000   1.0000   1.0000   1.0000
     1.0000   1.0000   1.0000   1.0000   0.9765   0.0020   0.0000   0.0000
     0.0000   0.0000   0.0000   0.0000   0.0000   0.0000   0.0000   0.0000
     0.0000   0.0000   0.0000   0.0000   0.0000

          k = 0.8000 0.8000 0.4243 ( 10073 PWs)   bands (ev):

   -48.9286 -48.9280 -48.9269 -48.9262 -23.2432 -23.2407 -23.2279 -23.2183
   -23.2116 -23.2103 -23.2013 -23.1935 -23.1918 -23.1899 -23.1603 -23.1592
   -22.1006 -22.0938 -22.0814 -22.0779  -6.6939  -6.6898  -6.2809  -6.0400
    -5.9341  -5.9253  -5.9128  -5.7589  -5.6747  -5.5763  -5.5578  -5.5364
    -4.2921  -4.2214  -4.1190  -4.1029  -4.0375  -3.9955  -3.9897  -3.9449
    -3.8882  -3.8763  -3.8677  -3.8068   5.2577   5.2582   5.9976   6.0633
     6.1455   6.1612   6.2404   6.3922   6.4654   6.6988   6.7205   6.8179
     6.8636   6.8888   7.0107   7.1987   7.4890   7.5742   7.5828   7.6250
     7.8847   8.1824   8.4642   8.6675   8.8883   8.9543   9.1246   9.2525
     9.2637   9.3162   9.3804   9.4375   9.5565   9.7138   9.8601   9.9386
    12.6609  12.7886  12.8639  13.1919  13.5385  13.7410  13.9748  14.3862
    14.5856  14.8135  14.8433  14.9048  16.0726  16.2019  16.8029  16.8706
    17.2698  17.3481  17.4469  17.5166  17.7741

     occupation numbers 
     1.0000   1.0000   1.0000   1.0000   1.0000   1.0000   1.0000   1.0000
     1.0000   1.0000   1.0000   1.0000   1.0000   1.0000   1.0000   1.0000
     1.0000   1.0000   1.0000   1.0000   1.0000   1.0000   1.0000   1.0000
     1.0000   1.0000   1.0000   1.0000   1.0000   1.0000   1.0000   1.0000
     1.0000   1.0000   1.0000   1.0000   1.0000   1.0000   1.0000   1.0000
     1.0000   1.0000   1.0000   1.0000   1.0000   1.0000   1.0000   1.0000
     1.0000   1.0000   1.0000   1.0000   1.0000   1.0000   1.0000   1.0000
     1.0000   1.0000   1.0000   1.0000   1.0000   1.0000   1.0000   1.0000
     1.0000   1.0000   1.0000   1.0000   1.0000   1.0000   1.0000   1.0000
     1.0000   1.0000   1.0000   1.0000   1.0000   1.0000   1.0000   1.0000
     1.0000   1.0000   1.0000   1.0000   0.9765   0.0020   0.0000   0.0000
     0.0000   0.0000   0.0000   0.0000   0.0000   0.0000   0.0000   0.0000
     0.0000   0.0000   0.0000   0.0000   0.0000

          k = 0.8000 0.8000 0.5657 ( 10067 PWs)   bands (ev):

   -48.9289 -48.9277 -48.9273 -48.9257 -23.2496 -23.2450 -23.2388 -23.2381
   -23.2126 -23.2092 -23.1947 -23.1884 -23.1780 -23.1731 -23.1612 -23.1584
   -22.1062 -22.0885 -22.0842 -22.0750  -6.7386  -6.7312  -6.4696  -6.0205
    -5.9150  -5.9076  -5.7831  -5.7787  -5.6220  -5.5651  -5.5084  -5.4879
    -4.2987  -4.1410  -4.1239  -4.1046  -4.0917  -4.0654  -4.0407  -3.9682
    -3.9325  -3.8447  -3.7745  -3.7357   5.2387   5.2556   5.5200   5.5787
     5.8944   5.9986   6.2322   6.3522   6.4466   6.4592   6.5890   6.9693
     7.0867   7.0895   7.2322   7.4820   7.4891   7.6559   7.6913   8.1470
     8.3419   8.4037   8.4328   8.7800   8.8129   8.8465   8.9512   9.0751
     9.0867   9.3387   9.3894   9.4581   9.7535   9.8098   9.8452  10.1319
    12.0470  12.7454  12.8292  12.8337  13.6867  14.1191  14.2522  14.4200
    14.7539  14.7746  14.9452  15.1480  15.7871  16.2538  16.4121  16.4419
    16.7143  16.9436  17.1681  17.4926  17.6909

     occupation numbers 
     1.0000   1.0000   1.0000   1.0000   1.0000   1.0000   1.0000   1.0000
     1.0000   1.0000   1.0000   1.0000   1.0000   1.0000   1.0000   1.0000
     1.0000   1.0000   1.0000   1.0000   1.0000   1.0000   1.0000   1.0000
     1.0000   1.0000   1.0000   1.0000   1.0000   1.0000   1.0000   1.0000
     1.0000   1.0000   1.0000   1.0000   1.0000   1.0000   1.0000   1.0000
     1.0000   1.0000   1.0000   1.0000   1.0000   1.0000   1.0000   1.0000
     1.0000   1.0000   1.0000   1.0000   1.0000   1.0000   1.0000   1.0000
     1.0000   1.0000   1.0000   1.0000   1.0000   1.0000   1.0000   1.0000
     1.0000   1.0000   1.0000   1.0000   1.0000   1.0000   1.0000   1.0000
     1.0000   1.0000   1.0000   1.0000   1.0000   1.0000   1.0000   1.0000
     1.0000   1.0000   1.0000   1.0000   0.0284   0.0000   0.0000   0.0000
     0.0000   0.0000   0.0000   0.0000   0.0000   0.0000   0.0000   0.0000
     0.0000   0.0000   0.0000   0.0000   0.0000

     the Fermi energy is    13.6146 ev
     (compare with:    13.6146 eV, computed in scf)
     The nscf band energy is:      -51.86224779 Ry
     Calculation interrupted for call of DMFT code

     Writing all to output data dir ./out/smo.save/ :
     XML data file, pseudopotentials, collected wavefunctions

     init_run     :      1.42s CPU      1.76s WALL (       1 calls)
     electrons    :     34.23s CPU     44.24s WALL (       1 calls)

     Called by init_run:
     wfcinit      :      0.00s CPU      0.13s WALL (       1 calls)
     wfcinit:atom :      0.02s CPU      0.04s WALL (       1 calls)
     wfcinit:wfcr :      1.03s CPU      1.07s WALL (       1 calls)
     potinit      :      0.19s CPU      0.29s WALL (       1 calls)
     hinit0       :      1.13s CPU      1.18s WALL (       1 calls)

     Called by electrons:
     c_bands      :     34.13s CPU     34.68s WALL (       1 calls)
     v_of_rho     :      0.10s CPU      0.10s WALL (       1 calls)
     v_h          :      0.04s CPU      0.05s WALL (       1 calls)
     v_xc         :      0.05s CPU      0.06s WALL (       1 calls)
     newd         :      0.04s CPU      0.05s WALL (       1 calls)
     PAW_pot      :      0.03s CPU      0.04s WALL (       1 calls)

     Called by c_bands:
     init_us_2    :      0.05s CPU      0.08s WALL (       1 calls)
     cegterg      :     32.91s CPU     33.31s WALL (       6 calls)

     Called by sum_band:

     Called by *egterg:
     cdiaghg      :      4.70s CPU      4.73s WALL (     121 calls)
     cegterg:over :      4.77s CPU      4.80s WALL (     120 calls)
     cegterg:upda :      4.64s CPU      4.72s WALL (     120 calls)
     cegterg:last :      1.46s CPU      1.47s WALL (       7 calls)
     h_psi        :     15.19s CPU     15.38s WALL (     127 calls)
     s_psi        :      2.46s CPU      2.47s WALL (     127 calls)
     g_psi        :      0.05s CPU      0.05s WALL (     120 calls)

     Called by h_psi:
     h_psi:calbec :      2.44s CPU      2.45s WALL (     127 calls)
     vloc_psi     :     10.09s CPU     10.19s WALL (     127 calls)
                                        0.00s GPU  (     127 calls)
     add_vuspsi   :      2.58s CPU      2.60s WALL (     127 calls)

     General routines
     calbec       :      2.44s CPU      2.45s WALL (     127 calls)
     fft          :      0.07s CPU      0.07s WALL (       6 calls)
     ffts         :      0.00s CPU      0.00s WALL (       1 calls)
     fftw         :      9.19s CPU      9.28s WALL (    4590 calls)
     interpolate  :      0.02s CPU      0.03s WALL (       1 calls)
     davcio       :      0.00s CPU      5.44s WALL (       2 calls)

     Parallel routines

     PAW routines
     PAW_pot      :      0.03s CPU      0.04s WALL (       1 calls)

     PWSCF        :     36.09s CPU     47.49s WALL


   This run was terminated on:  20:39:19  29Nov2025            

=------------------------------------------------------------------------------=
   JOB DONE.
=------------------------------------------------------------------------------=
