
     Program PWSCF v.7.5 starts on 29Nov2025 at 20:36:15 
        Git branch: develop
        Last git commit: 70e07caa2a5fab3dd9374bc01196f67e923fc5ea
        Last git commit date: Mon Aug 18 10:06:47 2025 +0000
        Last git commit subject: Merge branch 'stressed-by-optional-variables' into

     This program is part of the open-source Quantum ESPRESSO suite
     for quantum simulation of materials; please cite
         "P. Giannozzi et al., J. Phys.:Condens. Matter 21 395502 (2009);
         "P. Giannozzi et al., J. Phys.:Condens. Matter 29 465901 (2017);
         "P. Giannozzi et al., J. Chem. Phys. 152 154105 (2020);
          URL http://www.quantum-espresso.org", 
     in publications or presentations arising from this work. More details at
     http://www.quantum-espresso.org/quote

     Parallel version (MPI), running on   128 processors

     MPI processes distributed on     1 nodes
     978096 MiB available memory on the printing compute node when the environment starts

     Waiting for input...
     Reading input from standard input

     Current dimensions of program PWSCF are:
     Max number of different atomic species (ntypx) = 10
     Max number of k-points (npk) =  40000
     Max angular momentum in pseudopotentials (lmaxx) =  4
     file Sr.pz-spn-kjpaw_psl.1.0.0.UPF: wavefunction(s)  4P renormalized
     file Mo.pz-spn-kjpaw_psl.1.0.0.UPF: wavefunction(s)  4S 4D renormalized
     file O.pz-n-kjpaw_psl.1.0.0.UPF: wavefunction(s)  2S 2P renormalized

     Atomic positions and unit cell read from directory:
     ./out/smo.save/

     Found identity + (  0.5000 -0.5000 -0.5000) symmetry
     This is a supercell, fractional translations are disabled
     Message from routine setup:
     using ibrav=0 with symmetry is DISCOURAGED, use correct ibrav instead

     K-points division:     npool     =     128
     Subspace diagonalization in iterative solution of the eigenvalue problem:
     a serial algorithm will be used

     Message from routine divide_et_impera:
     suboptimal parallelization: some nodes have no k-points

     G-vector sticks info
     --------------------
     sticks:   dense  smooth     PW     G-vecs:    dense   smooth      PW
     Sum        5385    2701    749               419469   148351   21815

     Using Slab Decomposition



     bravais-lattice index     =            0
     lattice parameter (alat)  =      10.6088  a.u.
     unit-cell volume          =    1688.5722 (a.u.)^3
     number of atoms/cell      =           20
     number of atomic types    =            3
     number of electrons       =       168.00
     number of Kohn-Sham states=          101
     kinetic-energy cutoff     =      75.0000  Ry
     charge density cutoff     =     600.0000  Ry
     Exchange-correlation= SLA  PZ   NOGX NOGC
                           (   1   1   0   0   0   0   0)

     celldm(1)=  10.608847  celldm(2)=   0.000000  celldm(3)=   0.000000
     celldm(4)=   0.000000  celldm(5)=   0.000000  celldm(6)=   0.000000

     crystal axes: (cart. coord. in units of alat)
               a(1) = (   1.000000   0.000000   0.000000 )  
               a(2) = (   0.000000   1.000000   0.000000 )  
               a(3) = (   0.000000   0.000000   1.414214 )  

     reciprocal axes: (cart. coord. in units 2 pi/alat)
               b(1) = (  1.000000  0.000000  0.000000 )  
               b(2) = (  0.000000  1.000000  0.000000 )  
               b(3) = (  0.000000  0.000000  0.707107 )  


     PseudoPot. # 1 for Sr read from file:
     ./pseudo/Sr.pz-spn-kjpaw_psl.1.0.0.UPF
     MD5 check sum: 14b1f655f5497b386c4f305353cf4fd4
     Pseudo is Projector augmented-wave + core cor, Zval = 10.0
     Generated using 'atomic' code by A. Dal Corso  v.7.3
     Shape of augmentation charge: PSQ
     Using radial grid of 1221 points,  6 beta functions with: 
                l(1) =   0
                l(2) =   0
                l(3) =   1
                l(4) =   1
                l(5) =   2
                l(6) =   2
     Q(r) pseudized with 0 coefficients 


     PseudoPot. # 2 for Mo read from file:
     ./pseudo/Mo.pz-spn-kjpaw_psl.1.0.0.UPF
     MD5 check sum: 2e12aff744a4785a34e7548d4bec1d21
     Pseudo is Projector augmented-wave + core cor, Zval = 14.0
     Generated using 'atomic' code by A. Dal Corso  v.7.3
     Shape of augmentation charge: PSQ
     Using radial grid of 1229 points,  6 beta functions with: 
                l(1) =   0
                l(2) =   0
                l(3) =   1
                l(4) =   1
                l(5) =   2
                l(6) =   2
     Q(r) pseudized with 0 coefficients 


     PseudoPot. # 3 for O  read from file:
     ./pseudo/O.pz-n-kjpaw_psl.1.0.0.UPF
     MD5 check sum: 71a951e35f67dc87891058fc5642ed8f
     Pseudo is Projector augmented-wave + core cor, Zval =  6.0
     Generated using 'atomic' code by A. Dal Corso  v.7.3
     Shape of augmentation charge: PSQ
     Using radial grid of 1095 points,  4 beta functions with: 
                l(1) =   0
                l(2) =   0
                l(3) =   1
                l(4) =   1
     Q(r) pseudized with 0 coefficients 


     atomic species   valence    mass     pseudopotential
     Sr               10.00    87.62000     Sr( 1.00)
     Mo               14.00    95.95000     Mo( 1.00)
     O                 6.00    15.99900     O ( 1.00)

      4 Sym. Ops., with inversion, found


                                    s                        frac. trans.

      isym =  1     identity                                     

 cryst.   s( 1) = (     1          0          0      )
                  (     0          1          0      )
                  (     0          0          1      )

 cart.    s( 1) = (  1.0000000  0.0000000  0.0000000 )
                  (  0.0000000  1.0000000  0.0000000 )
                  (  0.0000000  0.0000000  1.0000000 )


      isym =  2     180 deg rotation - cart. axis [1,0,0]        

 cryst.   s( 2) = (     1          0          0      )
                  (     0         -1          0      )
                  (     0          0         -1      )

 cart.    s( 2) = (  1.0000000  0.0000000  0.0000000 )
                  (  0.0000000 -1.0000000  0.0000000 )
                  (  0.0000000  0.0000000 -1.0000000 )


      isym =  3     inversion                                    

 cryst.   s( 3) = (    -1          0          0      )
                  (     0         -1          0      )
                  (     0          0         -1      )

 cart.    s( 3) = ( -1.0000000  0.0000000  0.0000000 )
                  (  0.0000000 -1.0000000  0.0000000 )
                  (  0.0000000  0.0000000 -1.0000000 )


      isym =  4     inv. 180 deg rotation - cart. axis [1,0,0]   

 cryst.   s( 4) = (    -1          0          0      )
                  (     0          1          0      )
                  (     0          0          1      )

 cart.    s( 4) = ( -1.0000000  0.0000000  0.0000000 )
                  (  0.0000000  1.0000000  0.0000000 )
                  (  0.0000000  0.0000000  1.0000000 )


   Cartesian axes

     site n.     atom                  positions (alat units)
         1        Sr     tau(   1) = (   0.0000000   0.5000000   0.3535535  )
         2        Sr     tau(   2) = (   0.0000000   0.5000000   1.0606604  )
         3        Sr     tau(   3) = (   0.5000000   0.0000000   1.0606604  )
         4        Sr     tau(   4) = (   0.5000000   0.0000000   0.3535535  )
         5        Mo     tau(   5) = (   0.0000000   0.0000000   0.0000000  )
         6        Mo     tau(   6) = (   0.0000000   0.0000000   0.7071069  )
         7        Mo     tau(   7) = (   0.5000000   0.5000000   0.7071069  )
         8        Mo     tau(   8) = (   0.5000000   0.5000000   0.0000000  )
         9        O      tau(   9) = (   0.2500000   0.7500000  -0.0125950  )
        10        O      tau(  10) = (   0.2500000   0.2500000   0.0125950  )
        11        O      tau(  11) = (   0.7500000   0.2500000   0.6945119  )
        12        O      tau(  12) = (   0.7500000   0.7500000   0.7197019  )
        13        O      tau(  13) = (   0.7500000   0.2500000   0.0125950  )
        14        O      tau(  14) = (   0.7500000   0.7500000  -0.0125950  )
        15        O      tau(  15) = (   0.2500000   0.7500000   0.7197019  )
        16        O      tau(  16) = (   0.2500000   0.2500000   0.6945119  )
        17        O      tau(  17) = (   0.0000000  -0.0178120   0.3535535  )
        18        O      tau(  18) = (   0.0000000   0.0178120   1.0606604  )
        19        O      tau(  19) = (   0.5000000   0.4821880   1.0606604  )
        20        O      tau(  20) = (   0.5000000   0.5178120   0.3535535  )

   Crystallographic axes

     site n.     atom                  positions (cryst. coord.)
         1        Sr     tau(   1) = (  0.0000000  0.5000000  0.2500000  )
         2        Sr     tau(   2) = (  0.0000000  0.5000000  0.7500000  )
         3        Sr     tau(   3) = (  0.5000000  0.0000000  0.7500000  )
         4        Sr     tau(   4) = (  0.5000000  0.0000000  0.2500000  )
         5        Mo     tau(   5) = (  0.0000000  0.0000000  0.0000000  )
         6        Mo     tau(   6) = (  0.0000000  0.0000000  0.5000000  )
         7        Mo     tau(   7) = (  0.5000000  0.5000000  0.5000000  )
         8        Mo     tau(   8) = (  0.5000000  0.5000000  0.0000000  )
         9        O      tau(   9) = (  0.2500000  0.7500000 -0.0089060  )
        10        O      tau(  10) = (  0.2500000  0.2500000  0.0089060  )
        11        O      tau(  11) = (  0.7500000  0.2500000  0.4910940  )
        12        O      tau(  12) = (  0.7500000  0.7500000  0.5089060  )
        13        O      tau(  13) = (  0.7500000  0.2500000  0.0089060  )
        14        O      tau(  14) = (  0.7500000  0.7500000 -0.0089060  )
        15        O      tau(  15) = (  0.2500000  0.7500000  0.5089060  )
        16        O      tau(  16) = (  0.2500000  0.2500000  0.4910940  )
        17        O      tau(  17) = (  0.0000000 -0.0178120  0.2500000  )
        18        O      tau(  18) = (  0.0000000  0.0178120  0.7500000  )
        19        O      tau(  19) = (  0.5000000  0.4821880  0.7500000  )
        20        O      tau(  20) = (  0.5000000  0.5178120  0.2500000  )

     number of k points=    71  Marzari-Vanderbilt smearing, width (Ry)=  0.0147
                       cart. coord. in units 2pi/alat
        k(    1) = (   0.0000000   0.0000000   0.0000000), wk =   0.0281690
        k(    2) = (   0.0000000   0.0500000   0.0000000), wk =   0.0281690
        k(    3) = (   0.0000000   0.1000000   0.0000000), wk =   0.0281690
        k(    4) = (   0.0000000   0.1500000   0.0000000), wk =   0.0281690
        k(    5) = (   0.0000000   0.2000000   0.0000000), wk =   0.0281690
        k(    6) = (   0.0000000   0.2500000   0.0000000), wk =   0.0281690
        k(    7) = (   0.0000000   0.3000000   0.0000000), wk =   0.0281690
        k(    8) = (   0.0000000   0.3500000   0.0000000), wk =   0.0281690
        k(    9) = (   0.0000000   0.4000000   0.0000000), wk =   0.0281690
        k(   10) = (   0.0000000   0.4500000   0.0000000), wk =   0.0281690
        k(   11) = (   0.0000000   0.5000000   0.0000000), wk =   0.0281690
        k(   12) = (   0.0500000   0.5000000   0.0000000), wk =   0.0281690
        k(   13) = (   0.1000000   0.5000000   0.0000000), wk =   0.0281690
        k(   14) = (   0.1500000   0.5000000   0.0000000), wk =   0.0281690
        k(   15) = (   0.2000000   0.5000000   0.0000000), wk =   0.0281690
        k(   16) = (   0.2500000   0.5000000   0.0000000), wk =   0.0281690
        k(   17) = (   0.3000000   0.5000000   0.0000000), wk =   0.0281690
        k(   18) = (   0.3500000   0.5000000   0.0000000), wk =   0.0281690
        k(   19) = (   0.4000000   0.5000000   0.0000000), wk =   0.0281690
        k(   20) = (   0.4500000   0.5000000   0.0000000), wk =   0.0281690
        k(   21) = (   0.5000000   0.5000000   0.0000000), wk =   0.0281690
        k(   22) = (   0.4500000   0.4500000   0.0000000), wk =   0.0281690
        k(   23) = (   0.4000000   0.4000000   0.0000000), wk =   0.0281690
        k(   24) = (   0.3500000   0.3500000   0.0000000), wk =   0.0281690
        k(   25) = (   0.3000000   0.3000000   0.0000000), wk =   0.0281690
        k(   26) = (   0.2500000   0.2500000   0.0000000), wk =   0.0281690
        k(   27) = (   0.2000000   0.2000000   0.0000000), wk =   0.0281690
        k(   28) = (   0.1500000   0.1500000   0.0000000), wk =   0.0281690
        k(   29) = (   0.1000000   0.1000000   0.0000000), wk =   0.0281690
        k(   30) = (   0.0500000   0.0500000   0.0000000), wk =   0.0281690
        k(   31) = (   0.0000000   0.0000000   0.0000000), wk =   0.0281690
        k(   32) = (   0.0000000   0.0000000   0.0353553), wk =   0.0281690
        k(   33) = (   0.0000000   0.0000000   0.0707107), wk =   0.0281690
        k(   34) = (   0.0000000   0.0000000   0.1060660), wk =   0.0281690
        k(   35) = (   0.0000000   0.0000000   0.1414213), wk =   0.0281690
        k(   36) = (   0.0000000   0.0000000   0.1767767), wk =   0.0281690
        k(   37) = (   0.0000000   0.0000000   0.2121320), wk =   0.0281690
        k(   38) = (   0.0000000   0.0000000   0.2474873), wk =   0.0281690
        k(   39) = (   0.0000000   0.0000000   0.2828427), wk =   0.0281690
        k(   40) = (   0.0000000   0.0000000   0.3181980), wk =   0.0281690
        k(   41) = (   0.0000000   0.0000000   0.3535533), wk =   0.0281690
        k(   42) = (   0.0000000   0.0500000   0.3535533), wk =   0.0281690
        k(   43) = (   0.0000000   0.1000000   0.3535533), wk =   0.0281690
        k(   44) = (   0.0000000   0.1500000   0.3535533), wk =   0.0281690
        k(   45) = (   0.0000000   0.2000000   0.3535533), wk =   0.0281690
        k(   46) = (   0.0000000   0.2500000   0.3535533), wk =   0.0281690
        k(   47) = (   0.0000000   0.3000000   0.3535533), wk =   0.0281690
        k(   48) = (   0.0000000   0.3500000   0.3535533), wk =   0.0281690
        k(   49) = (   0.0000000   0.4000000   0.3535533), wk =   0.0281690
        k(   50) = (   0.0000000   0.4500000   0.3535533), wk =   0.0281690
        k(   51) = (   0.0000000   0.5000000   0.3535533), wk =   0.0281690
        k(   52) = (   0.0500000   0.5000000   0.3535533), wk =   0.0281690
        k(   53) = (   0.1000000   0.5000000   0.3535533), wk =   0.0281690
        k(   54) = (   0.1500000   0.5000000   0.3535533), wk =   0.0281690
        k(   55) = (   0.2000000   0.5000000   0.3535533), wk =   0.0281690
        k(   56) = (   0.2500000   0.5000000   0.3535533), wk =   0.0281690
        k(   57) = (   0.3000000   0.5000000   0.3535533), wk =   0.0281690
        k(   58) = (   0.3500000   0.5000000   0.3535533), wk =   0.0281690
        k(   59) = (   0.4000000   0.5000000   0.3535533), wk =   0.0281690
        k(   60) = (   0.4500000   0.5000000   0.3535533), wk =   0.0281690
        k(   61) = (   0.5000000   0.5000000   0.3535533), wk =   0.0281690
        k(   62) = (   0.4500000   0.4500000   0.3535533), wk =   0.0281690
        k(   63) = (   0.4000000   0.4000000   0.3535533), wk =   0.0281690
        k(   64) = (   0.3500000   0.3500000   0.3535533), wk =   0.0281690
        k(   65) = (   0.3000000   0.3000000   0.3535533), wk =   0.0281690
        k(   66) = (   0.2500000   0.2500000   0.3535533), wk =   0.0281690
        k(   67) = (   0.2000000   0.2000000   0.3535533), wk =   0.0281690
        k(   68) = (   0.1500000   0.1500000   0.3535533), wk =   0.0281690
        k(   69) = (   0.1000000   0.1000000   0.3535533), wk =   0.0281690
        k(   70) = (   0.0500000   0.0500000   0.3535533), wk =   0.0281690
        k(   71) = (   0.0000000   0.0000000   0.3535533), wk =   0.0281690

                       cryst. coord.
        k(    1) = (   0.0000000   0.0000000   0.0000000), wk =   0.0281690
        k(    2) = (   0.0000000   0.0500000   0.0000000), wk =   0.0281690
        k(    3) = (   0.0000000   0.1000000   0.0000000), wk =   0.0281690
        k(    4) = (   0.0000000   0.1500000   0.0000000), wk =   0.0281690
        k(    5) = (   0.0000000   0.2000000   0.0000000), wk =   0.0281690
        k(    6) = (   0.0000000   0.2500000   0.0000000), wk =   0.0281690
        k(    7) = (   0.0000000   0.3000000   0.0000000), wk =   0.0281690
        k(    8) = (   0.0000000   0.3500000   0.0000000), wk =   0.0281690
        k(    9) = (   0.0000000   0.4000000   0.0000000), wk =   0.0281690
        k(   10) = (   0.0000000   0.4500000   0.0000000), wk =   0.0281690
        k(   11) = (   0.0000000   0.5000000   0.0000000), wk =   0.0281690
        k(   12) = (   0.0500000   0.5000000   0.0000000), wk =   0.0281690
        k(   13) = (   0.1000000   0.5000000   0.0000000), wk =   0.0281690
        k(   14) = (   0.1500000   0.5000000   0.0000000), wk =   0.0281690
        k(   15) = (   0.2000000   0.5000000   0.0000000), wk =   0.0281690
        k(   16) = (   0.2500000   0.5000000   0.0000000), wk =   0.0281690
        k(   17) = (   0.3000000   0.5000000   0.0000000), wk =   0.0281690
        k(   18) = (   0.3500000   0.5000000   0.0000000), wk =   0.0281690
        k(   19) = (   0.4000000   0.5000000   0.0000000), wk =   0.0281690
        k(   20) = (   0.4500000   0.5000000   0.0000000), wk =   0.0281690
        k(   21) = (   0.5000000   0.5000000   0.0000000), wk =   0.0281690
        k(   22) = (   0.4500000   0.4500000   0.0000000), wk =   0.0281690
        k(   23) = (   0.4000000   0.4000000   0.0000000), wk =   0.0281690
        k(   24) = (   0.3500000   0.3500000   0.0000000), wk =   0.0281690
        k(   25) = (   0.3000000   0.3000000   0.0000000), wk =   0.0281690
        k(   26) = (   0.2500000   0.2500000   0.0000000), wk =   0.0281690
        k(   27) = (   0.2000000   0.2000000   0.0000000), wk =   0.0281690
        k(   28) = (   0.1500000   0.1500000   0.0000000), wk =   0.0281690
        k(   29) = (   0.1000000   0.1000000   0.0000000), wk =   0.0281690
        k(   30) = (   0.0500000   0.0500000   0.0000000), wk =   0.0281690
        k(   31) = (   0.0000000   0.0000000   0.0000000), wk =   0.0281690
        k(   32) = (   0.0000000   0.0000000   0.0500000), wk =   0.0281690
        k(   33) = (   0.0000000   0.0000000   0.1000000), wk =   0.0281690
        k(   34) = (   0.0000000   0.0000000   0.1500000), wk =   0.0281690
        k(   35) = (   0.0000000   0.0000000   0.2000000), wk =   0.0281690
        k(   36) = (   0.0000000   0.0000000   0.2500000), wk =   0.0281690
        k(   37) = (   0.0000000   0.0000000   0.3000000), wk =   0.0281690
        k(   38) = (   0.0000000   0.0000000   0.3500000), wk =   0.0281690
        k(   39) = (   0.0000000   0.0000000   0.4000000), wk =   0.0281690
        k(   40) = (   0.0000000   0.0000000   0.4500000), wk =   0.0281690
        k(   41) = (   0.0000000   0.0000000   0.5000000), wk =   0.0281690
        k(   42) = (   0.0000000   0.0500000   0.5000000), wk =   0.0281690
        k(   43) = (   0.0000000   0.1000000   0.5000000), wk =   0.0281690
        k(   44) = (   0.0000000   0.1500000   0.5000000), wk =   0.0281690
        k(   45) = (   0.0000000   0.2000000   0.5000000), wk =   0.0281690
        k(   46) = (   0.0000000   0.2500000   0.5000000), wk =   0.0281690
        k(   47) = (   0.0000000   0.3000000   0.5000000), wk =   0.0281690
        k(   48) = (   0.0000000   0.3500000   0.5000000), wk =   0.0281690
        k(   49) = (   0.0000000   0.4000000   0.5000000), wk =   0.0281690
        k(   50) = (   0.0000000   0.4500000   0.5000000), wk =   0.0281690
        k(   51) = (   0.0000000   0.5000000   0.5000000), wk =   0.0281690
        k(   52) = (   0.0500000   0.5000000   0.5000000), wk =   0.0281690
        k(   53) = (   0.1000000   0.5000000   0.5000000), wk =   0.0281690
        k(   54) = (   0.1500000   0.5000000   0.5000000), wk =   0.0281690
        k(   55) = (   0.2000000   0.5000000   0.5000000), wk =   0.0281690
        k(   56) = (   0.2500000   0.5000000   0.5000000), wk =   0.0281690
        k(   57) = (   0.3000000   0.5000000   0.5000000), wk =   0.0281690
        k(   58) = (   0.3500000   0.5000000   0.5000000), wk =   0.0281690
        k(   59) = (   0.4000000   0.5000000   0.5000000), wk =   0.0281690
        k(   60) = (   0.4500000   0.5000000   0.5000000), wk =   0.0281690
        k(   61) = (   0.5000000   0.5000000   0.5000000), wk =   0.0281690
        k(   62) = (   0.4500000   0.4500000   0.5000000), wk =   0.0281690
        k(   63) = (   0.4000000   0.4000000   0.5000000), wk =   0.0281690
        k(   64) = (   0.3500000   0.3500000   0.5000000), wk =   0.0281690
        k(   65) = (   0.3000000   0.3000000   0.5000000), wk =   0.0281690
        k(   66) = (   0.2500000   0.2500000   0.5000000), wk =   0.0281690
        k(   67) = (   0.2000000   0.2000000   0.5000000), wk =   0.0281690
        k(   68) = (   0.1500000   0.1500000   0.5000000), wk =   0.0281690
        k(   69) = (   0.1000000   0.1000000   0.5000000), wk =   0.0281690
        k(   70) = (   0.0500000   0.0500000   0.5000000), wk =   0.0281690
        k(   71) = (   0.0000000   0.0000000   0.5000000), wk =   0.0281690

     Dense  grid:   419469 G-vectors     FFT dimensions: (  90,  90, 120)

     Smooth grid:   148351 G-vectors     FFT dimensions: (  60,  60,  90)

     Dynamical RAM for                 wfc:      28.54 MB

     Dynamical RAM for     wfc (w. buffer):      28.54 MB

     Dynamical RAM for           str. fact:      19.20 MB

     Dynamical RAM for           local pot:       0.00 MB

     Dynamical RAM for          nlocal pot:      67.83 MB

     Dynamical RAM for                qrad:       5.90 MB

     Dynamical RAM for          rho,v,vnew:      41.45 MB

     Dynamical RAM for           G-vectors:      25.13 MB

     Dynamical RAM for          h,s,v(r/c):       1.87 MB

     Dynamical RAM for          <psi|beta>:       0.37 MB

     Dynamical RAM for                 psi:      57.09 MB

     Dynamical RAM for                hpsi:      57.09 MB

     Dynamical RAM for                spsi:      57.09 MB

     Dynamical RAM for      wfcinit/wfcrot:      57.32 MB

     Dynamical RAM for           addusdens:      16.25 MB

     Estimated static dynamical RAM per process >     250.73 MB

     Estimated max dynamical RAM per process >     424.23 MB

     Estimated total dynamical RAM >      53.03 GB

     The potential is recalculated from file :
     ./out/smo.save/charge-density

     Starting wfcs are  120 randomized atomic wfcs
     Checking if some PAW data can be deallocated... 
       PAW data deallocated on  100 nodes for type:  1
       PAW data deallocated on  100 nodes for type:  2
       PAW data deallocated on   56 nodes for type:  3

     Band Structure Calculation
     Davidson diagonalization with overlap

     Computing kpt #:     1  of     1 on this pool
     c_bands:  2 eigenvalues not converged
     total cpu time spent up to now is      102.8 secs

     ethr =  2.38E-13,  avg # of iterations =118.5

     total cpu time spent up to now is      116.8 secs

     End of band structure calculation

          k = 0.0000 0.0000 0.0000 ( 18577 PWs)   bands (ev):

   -48.9402 -48.9388 -48.9376 -48.9362 -23.2652 -23.2469 -23.2445 -23.2422
   -23.2403 -23.2380 -23.1733 -23.1669 -23.1664 -23.1642 -23.1625 -23.1607
   -22.1206 -22.0885 -22.0849 -22.0693  -6.9733  -6.7334  -6.2660  -6.0640
    -6.0527  -6.0089  -5.7757  -5.7603  -5.3151  -5.2980  -5.2959  -5.2826
    -4.3965  -4.3870  -4.3695  -4.1446  -4.1305  -4.1304  -4.1079  -4.1012
    -4.0554  -3.7484  -3.7337  -3.6404   5.1581   5.1759   5.1786   5.2751
     5.3594   5.4113   5.6011   6.2379   6.2382   6.2395   7.1759   7.1773
     7.6275   7.6288   7.7347   7.7419   7.7821   7.7852   7.7890   7.8431
     8.3156   8.7296   8.7376   8.7553   9.0991   9.1086   9.1156   9.4650
     9.4704   9.7528   9.7529   9.7595  10.1828  10.2147  10.2273  10.2416
    11.6602  11.6747  11.6751  11.8626  14.3046  14.3518  14.3527  14.3844
    15.1592  15.2187  15.3227  15.4458  15.5054  15.5808  15.6609  15.6855
    15.7237  15.9022  16.6183  17.0705  17.0846

          k = 0.0000 0.0500 0.0000 ( 18595 PWs)   bands (ev):

   -48.9401 -48.9388 -48.9376 -48.9362 -23.2650 -23.2469 -23.2441 -23.2418
   -23.2398 -23.2376 -23.1733 -23.1671 -23.1669 -23.1647 -23.1630 -23.1612
   -22.1202 -22.0884 -22.0849 -22.0695  -6.9655  -6.7327  -6.2775  -6.0628
    -6.0507  -6.0049  -5.7690  -5.7618  -5.3225  -5.3160  -5.3050  -5.2877
    -4.3857  -4.3854  -4.3562  -4.1428  -4.1296  -4.1243  -4.1098  -4.0929
    -4.0561  -3.7518  -3.7351  -3.6431   5.1748   5.1840   5.1925   5.2748
     5.3760   5.4258   5.6133   6.2319   6.2412   6.2468   7.1820   7.1834
     7.4896   7.5880   7.7174   7.7390   7.7655   7.7795   7.7808   7.9785
     8.3601   8.7205   8.7408   8.7581   9.0633   9.0843   9.1159   9.4250
     9.4474   9.7146   9.7350   9.7405  10.1732  10.2064  10.2239  10.2282
    11.6807  11.7028  11.7191  11.9032  14.3055  14.3411  14.3543  14.3682
    15.1405  15.2191  15.3347  15.4233  15.5467  15.6026  15.6620  15.7035
    15.7434  15.9323  16.6166  17.0873  17.1129

          k = 0.0000 0.1000 0.0000 ( 18565 PWs)   bands (ev):

   -48.9401 -48.9387 -48.9376 -48.9362 -23.2645 -23.2471 -23.2431 -23.2403
   -23.2384 -23.2362 -23.1732 -23.1689 -23.1672 -23.1661 -23.1643 -23.1626
   -22.1190 -22.0883 -22.0851 -22.0701  -6.9423  -6.7306  -6.3087  -6.0588
    -6.0446  -5.9931  -5.7663  -5.7522  -5.3672  -5.3433  -5.3300  -5.3028
    -4.3807  -4.3557  -4.3188  -4.1375  -4.1271  -4.1153  -4.1063  -4.0692
    -4.0582  -3.7616  -3.7389  -3.6513   5.1981   5.2245   5.2421   5.2740
     5.4217   5.4730   5.6513   6.2137   6.2509   6.2692   7.1960   7.2059
     7.2824   7.4891   7.6672   7.7078   7.7281   7.7548   7.7716   8.1784
     8.4677   8.6947   8.7505   8.7686   8.9602   9.0153   9.1168   9.3113
     9.3834   9.6115   9.6664   9.7049  10.1449  10.1801  10.1884  10.2133
    11.7406  11.7828  11.8420  12.0180  14.3081  14.3086  14.3197  14.3595
    15.0847  15.2143  15.3436  15.3584  15.6656  15.6683  15.6917  15.7630
    15.8028  16.0212  16.6109  17.1370  17.1786

          k = 0.0000 0.1500 0.0000 ( 18557 PWs)   bands (ev):

   -48.9400 -48.9386 -48.9377 -48.9363 -23.2636 -23.2473 -23.2414 -23.2380
   -23.2362 -23.2339 -23.1730 -23.1719 -23.1685 -23.1682 -23.1659 -23.1649
   -22.1170 -22.0881 -22.0854 -22.0710  -6.9040  -6.7274  -6.3531  -6.0508
    -6.0347  -5.9736  -5.7738  -5.7320  -5.4453  -5.3745  -5.3657  -5.3274
    -4.3731  -4.3127  -4.2633  -4.1287  -4.1244  -4.1225  -4.0782  -4.0616
    -4.0340  -3.7775  -3.7448  -3.6648   5.2160   5.2728   5.3062   5.3238
     5.4877   5.5599   5.7181   6.1860   6.2674   6.3076   7.0737   7.2188
     7.2431   7.3658   7.5878   7.6150   7.7029   7.7072   7.7586   8.3758
     8.5929   8.6568   8.7667   8.7979   8.8007   8.9106   9.1185   9.1395
     9.2933   9.4659   9.5674   9.6501  10.0992  10.1232  10.1351  10.1945
    11.8357  11.9070  12.0205  12.1906  14.2402  14.2516  14.3156  14.3695
    14.9935  15.1922  15.2572  15.3181  15.6852  15.8617  15.8627  15.8706
    15.9013  16.1640  16.5999  17.2170  17.2796

          k = 0.0000 0.2000 0.0000 ( 18509 PWs)   bands (ev):

   -48.9399 -48.9385 -48.9378 -48.9364 -23.2626 -23.2477 -23.2390 -23.2348
   -23.2331 -23.2307 -23.1760 -23.1727 -23.1717 -23.1709 -23.1681 -23.1668
   -22.1145 -22.0877 -22.0858 -22.0722  -6.8511  -6.7234  -6.4041  -6.0375
    -6.0213  -5.9467  -5.7841  -5.7149  -5.5431  -5.4120  -5.4064  -5.3606
    -4.3625  -4.2633  -4.1969  -4.1367  -4.1164  -4.1149  -4.0662  -4.0425
    -3.9923  -3.7986  -3.7519  -3.6837   5.2325   5.2713   5.4184   5.4361
     5.5712   5.6865   5.8151   6.1524   6.2908   6.3640   6.8738   7.2367
     7.2493   7.2951   7.4847   7.4921   7.6326   7.6530   7.7404   8.5478
     8.5985   8.6274   8.6828   8.7808   8.7884   8.8792   8.9270   9.1193
     9.1986   9.2983   9.4582   9.5810  10.0354  10.0381  10.0729  10.1664
    11.9607  12.0651  12.2328  12.4035  14.1319  14.1712  14.3286  14.3859
    14.8699  15.1264  15.1454  15.2621  15.7302  15.9953  16.0359  16.1186
    16.1259  16.3520  16.5815  17.3239  17.4068

          k = 0.0000 0.2500 0.0000 ( 18505 PWs)   bands (ev):

   -48.9398 -48.9384 -48.9379 -48.9366 -23.2612 -23.2483 -23.2359 -23.2309
   -23.2293 -23.2268 -23.1810 -23.1757 -23.1748 -23.1723 -23.1721 -23.1673
   -22.1115 -22.0872 -22.0865 -22.0737  -6.7842  -6.7185  -6.4566  -6.0175
    -6.0048  -5.9131  -5.7972  -5.7059  -5.6547  -5.4514  -5.4470  -5.4013
    -4.3493  -4.2146  -4.1519  -4.1263  -4.1018  -4.1008  -4.0719  -4.0021
    -3.9496  -3.8240  -3.7599  -3.7076   5.2452   5.2696   5.5588   5.5770
     5.6736   5.8477   5.9392   6.1174   6.3215   6.4417   6.6886   7.1099
     7.2863   7.3444   7.3613   7.3641   7.5259   7.5668   7.7171   8.3660
     8.5471   8.6358   8.6770   8.7226   8.7580   8.8258   9.0172   9.1108
     9.1227   9.1243   9.3658   9.5026   9.9291   9.9643   9.9968  10.1279
    12.1103  12.2471  12.4636  12.6424  13.9973  14.0676  14.3490  14.4106
    14.7186  14.9713  15.0769  15.1858  15.7985  16.1588  16.2065  16.4231
    16.4352  16.5539  16.5745  17.4529  17.5517

          k = 0.0000 0.3000 0.0000 ( 18523 PWs)   bands (ev):

   -48.9396 -48.9382 -48.9381 -48.9367 -23.2598 -23.2490 -23.2322 -23.2263
   -23.2248 -23.2222 -23.1866 -23.1804 -23.1795 -23.1768 -23.1719 -23.1678
   -22.1082 -22.0875 -22.0866 -22.0753  -6.7124  -6.7044  -6.5071  -5.9905
    -5.9857  -5.8732  -5.8129  -5.7754  -5.7081  -5.4886  -5.4841  -5.4482
    -4.3337  -4.1745  -4.1695  -4.0818  -4.0785  -4.0780  -4.0569  -3.9601
    -3.9109  -3.8526  -3.7687  -3.7366   5.2536   5.2680   5.7247   5.7440
     5.7948   6.0390   6.0828   6.0863   6.3597   6.5228   6.5461   6.9896
     7.1781   7.2317   7.3284   7.3844   7.4334   7.4446   7.6888   8.1128
     8.4166   8.4831   8.5058   8.7457   8.8625   8.9227   8.9564   9.0758
     9.0835   9.1730   9.3218   9.4191   9.8095   9.8811   9.9097  10.0776
    12.2795  12.4445  12.7032  12.8962  13.8403  13.9422  14.3731  14.4456
    14.5498  14.7954  14.9942  15.0961  15.8826  16.3460  16.4092  16.5156
    16.7628  16.7838  16.8198  17.5985  17.7068

          k = 0.0000 0.3500 0.0000 ( 18495 PWs)   bands (ev):

   -48.9394 -48.9383 -48.9381 -48.9369 -23.2582 -23.2499 -23.2278 -23.2211
   -23.2198 -23.2171 -23.1926 -23.1857 -23.1847 -23.1820 -23.1714 -23.1683
   -22.1047 -22.0888 -22.0857 -22.0770  -6.7041  -6.6127  -6.5533  -5.9645
    -5.9565  -5.9013  -5.8309  -5.8278  -5.7229  -5.5198  -5.5150  -5.4998
    -4.3159  -4.1892  -4.1485  -4.0859  -4.0597  -4.0400  -3.9935  -3.9195
    -3.8833  -3.8803  -3.7790  -3.7702   5.2586   5.2665   5.9126   5.9336
     5.9340   6.0648   6.2344   6.2561   6.3801   6.4060   6.6839   6.8777
     6.9989   7.0930   7.2102   7.2634   7.3732   7.5356   7.6560   7.8458
     8.1447   8.3285   8.4746   8.7669   8.8050   8.9086   9.0161   9.0779
     9.0878   9.3280   9.3324   9.3340   9.6820   9.7919   9.8138  10.0145
    12.4639  12.6501  12.9461  13.1564  13.6651  13.7969  14.3142  14.4560
    14.4924  14.6013  14.9041  14.9986  15.9751  16.4659  16.5503  16.6412
    17.0774  17.1246  17.1592  17.7542  17.7696

          k = 0.0000 0.4000 0.0000 ( 18530 PWs)   bands (ev):

   -48.9393 -48.9385 -48.9379 -48.9371 -23.2566 -23.2509 -23.2228 -23.2154
   -23.2142 -23.2115 -23.1989 -23.1913 -23.1904 -23.1876 -23.1709 -23.1688
   -22.1013 -22.0905 -22.0847 -22.0788  -6.6927  -6.5939  -6.5104  -6.0292
    -5.9420  -5.9168  -5.8510  -5.7778  -5.7499  -5.5548  -5.5423  -5.5382
    -4.2965  -4.2102  -4.1326  -4.0938  -4.0348  -3.9932  -3.9396  -3.9150
    -3.8826  -3.8616  -3.8083  -3.7914   5.2614   5.2653   6.0581   6.0872
     6.1184   6.1431   6.2642   6.3843   6.4606   6.4947   6.7753   6.8124
     6.8599   6.9517   7.0099   7.0580   7.4173   7.5709   7.6193   7.6422
     7.8717   8.1762   8.4615   8.6775   8.7907   8.9537   8.9629   9.1324
     9.2224   9.2500   9.3767   9.4740   9.5524   9.7013   9.7105   9.9374
    12.6594  12.8584  13.1889  13.4079  13.4850  13.6339  14.1167  14.3906
    14.4975  14.5518  14.8120  14.8982  16.0704  16.4049  16.7645  16.8993
    17.3375  17.4927  17.5512  17.5945  17.9098

          k = 0.0000 0.4500 0.0000 ( 18522 PWs)   bands (ev):

   -48.9391 -48.9386 -48.9377 -48.9373 -23.2550 -23.2522 -23.2173 -23.2095
   -23.2084 -23.2056 -23.2052 -23.1973 -23.1963 -23.1935 -23.1704 -23.1693
   -22.0981 -22.0927 -22.0834 -22.0804  -6.6769  -6.6280  -6.3990  -6.1564
    -5.9187  -5.8734  -5.8726  -5.7865  -5.7243  -5.6115  -5.5552  -5.5530
    -4.2756  -4.2319  -4.1210  -4.1022  -4.0074  -3.9468  -3.9441  -3.8976
    -3.8574  -3.8514  -3.8504  -3.8071   5.2629   5.2645   6.0711   6.1665
     6.2632   6.3368   6.3668   6.5236   6.5287   6.6241   6.6832   6.7502
     6.7927   6.8103   6.8326   7.0711   7.2933   7.4437   7.5803   7.6204
     7.7607   8.0294   8.4720   8.5786   8.8196   8.8996   9.0248   9.1695
     9.2091   9.3570   9.4262   9.4406   9.5824   9.6001   9.6379   9.8456
    12.8620  13.0647  13.2718  13.4294  13.4557  13.6786  13.8962  14.1653
    14.5619  14.6238  14.7222  14.7998  16.1639  16.3333  16.9818  17.1798
    17.4018  17.5904  17.7908  17.8374  17.9511

          k = 0.0000 0.5000 0.0000 ( 18550 PWs)   bands (ev):

   -48.9389 -48.9388 -48.9375 -48.9375 -23.2535 -23.2535 -23.2114 -23.2114
   -23.2034 -23.2034 -23.2024 -23.2024 -23.1996 -23.1995 -23.1699 -23.1698
   -22.0952 -22.0952 -22.0820 -22.0820  -6.6556  -6.6556  -6.2804  -6.2804
    -5.8954  -5.8954  -5.8290  -5.8290  -5.6684  -5.6684  -5.5587  -5.5587
    -4.2540  -4.2540  -4.1112  -4.1112  -3.9778  -3.9778  -3.8960  -3.8960
    -3.8696  -3.8696  -3.8266  -3.8266   5.2637   5.2637   6.1073   6.1073
     6.4387   6.4387   6.5535   6.5535   6.5990   6.5990   6.6097   6.6097
     6.6697   6.6697   7.0180   7.0180   7.3025   7.3025   7.5466   7.5466
     7.8903   7.8903   8.5103   8.5103   8.8553   8.8553   9.0940   9.0940
     9.3096   9.3096   9.4825   9.4825   9.5167   9.5167   9.7396   9.7396
    13.0677  13.0677  13.2649  13.2649  13.6659  13.6659  13.9270  13.9270
    14.6378  14.6378  14.7072  14.7072  16.2524  16.2524  17.1960  17.1960
    17.4789  17.4789  17.8248  17.8248  18.0602

          k = 0.0500 0.5000 0.0000 ( 18528 PWs)   bands (ev):

   -48.9389 -48.9388 -48.9375 -48.9375 -23.2535 -23.2535 -23.2159 -23.2159
   -23.2077 -23.2077 -23.1990 -23.1990 -23.1942 -23.1942 -23.1698 -23.1698
   -22.0950 -22.0950 -22.0821 -22.0821  -6.6668  -6.6668  -6.2801  -6.2801
    -5.9069  -5.9069  -5.8055  -5.8055  -5.6708  -5.6708  -5.5640  -5.5640
    -4.2468  -4.2468  -4.1109  -4.1109  -3.9834  -3.9834  -3.8925  -3.8925
    -3.8665  -3.8665  -3.8203  -3.8203   5.2631   5.2631   6.0735   6.0735
     6.3295   6.3295   6.4403   6.4403   6.6164   6.6164   6.6450   6.6450
     6.7886   6.7886   7.0687   7.0687   7.3507   7.3507   7.5526   7.5526
     7.8869   7.8869   8.5012   8.5012   8.8625   8.8625   9.1024   9.1024
     9.2957   9.2957   9.4295   9.4295   9.4959   9.4959   9.7792   9.7792
    12.9568  12.9568  13.3733  13.3733  13.6855  13.6855  13.9401  13.9401
    14.6140  14.6140  14.7348  14.7348  16.2388  16.2388  17.2040  17.2040
    17.4725  17.4725  17.8297  17.8297  17.9580

          k = 0.1000 0.5000 0.0000 ( 18512 PWs)   bands (ev):

   -48.9389 -48.9388 -48.9375 -48.9375 -23.2533 -23.2533 -23.2229 -23.2229
   -23.2141 -23.2141 -23.1923 -23.1923 -23.1878 -23.1878 -23.1698 -23.1698
   -22.0946 -22.0946 -22.0823 -22.0823  -6.6977  -6.6977  -6.2793  -6.2793
    -5.9249  -5.9249  -5.7552  -5.7552  -5.6775  -5.6775  -5.5783  -5.5783
    -4.2266  -4.2266  -4.1100  -4.1100  -3.9975  -3.9975  -3.8825  -3.8825
    -3.8591  -3.8591  -3.8027  -3.8027   5.2612   5.2612   5.9915   5.9915
     6.1569   6.1569   6.2384   6.2384   6.6962   6.6962   6.7153   6.7153
     6.8835   6.8835   7.1898   7.1898   7.4633   7.4633   7.5891   7.5891
     7.8772   7.8772   8.4734   8.4734   8.8863   8.8863   9.1268   9.1268
     9.2555   9.2555   9.3259   9.3259   9.4241   9.4241   9.8557   9.8557
    12.7848  12.7848  13.5377  13.5377  13.7413  13.7414  13.9779  13.9779
    14.5749  14.5749  14.7846  14.7846  16.1971  16.1972  17.2268  17.2268
    17.4570  17.4570  17.7820  17.7820  17.8462

          k = 0.1500 0.5000 0.0000 ( 18510 PWs)   bands (ev):

   -48.9389 -48.9388 -48.9375 -48.9375 -23.2530 -23.2530 -23.2299 -23.2299
   -23.2203 -23.2203 -23.1858 -23.1858 -23.1817 -23.1816 -23.1698 -23.1698
   -22.0938 -22.0938 -22.0826 -22.0826  -6.7417  -6.7417  -6.2781  -6.2781
    -5.9413  -5.9413  -5.6975  -5.6975  -5.6877  -5.6877  -5.5943  -5.5943
    -4.1972  -4.1972  -4.1088  -4.1088  -4.0153  -4.0153  -3.8667  -3.8667
    -3.8487  -3.8487  -3.7773  -3.7773   5.2579   5.2579   5.8891   5.8891
     5.9779   5.9779   6.0402   6.0402   6.7774   6.7774   6.7996   6.7996
     6.9437   6.9437   7.3307   7.3307   7.5229   7.5229   7.7349   7.7349
     7.8624   7.8624   8.4274   8.4274   8.9300   8.9300   9.1626   9.1626
     9.1955   9.1955   9.2083   9.2083   9.3120   9.3120   9.9331   9.9331
    12.6098  12.6098  13.6997  13.6997  13.8252  13.8252  14.0358  14.0358
    14.5355  14.5355  14.8400  14.8400  16.1269  16.1269  17.2612  17.2612
    17.4413  17.4413  17.5879  17.5879  17.8754

          k = 0.2000 0.5000 0.0000 ( 18506 PWs)   bands (ev):

   -48.9389 -48.9388 -48.9375 -48.9375 -23.2527 -23.2527 -23.2365 -23.2365
   -23.2259 -23.2259 -23.1798 -23.1798 -23.1760 -23.1760 -23.1698 -23.1698
   -22.0928 -22.0928 -22.0831 -22.0831  -6.7915  -6.7915  -6.2765  -6.2765
    -5.9562  -5.9562  -5.7005  -5.7005  -5.6681  -5.6681  -5.5804  -5.5804
    -4.1635  -4.1635  -4.1076  -4.1076  -4.0344  -4.0344  -3.8468  -3.8468
    -3.8347  -3.8347  -3.7482  -3.7482   5.2526   5.2526   5.7819   5.7819
     5.8077   5.8077   5.8571   5.8571   6.8645   6.8645   6.8910   6.8910
     6.9902   6.9902   7.4607   7.4607   7.5430   7.5430   7.8414   7.8414
     7.9432   7.9432   8.3664   8.3664   8.9891   8.9891   9.0843   9.0843
     9.1114   9.1114   9.1828   9.1828   9.2171   9.2171  10.0013  10.0013
    12.4413  12.4413  13.8501  13.8501  13.9258  13.9258  14.1074  14.1074
    14.4982  14.4982  14.8962  14.8962  16.0315  16.0315  17.3023  17.3023
    17.3868  17.3869  17.4335  17.4335  17.9139

          k = 0.2500 0.5000 0.0000 ( 18562 PWs)   bands (ev):

   -48.9389 -48.9388 -48.9375 -48.9375 -23.2524 -23.2524 -23.2424 -23.2424
   -23.2310 -23.2310 -23.1745 -23.1745 -23.1712 -23.1712 -23.1695 -23.1695
   -22.0918 -22.0918 -22.0835 -22.0835  -6.8412  -6.8412  -6.2748  -6.2748
    -5.9699  -5.9699  -5.7143  -5.7143  -5.6848  -5.6848  -5.5214  -5.5214
    -4.1307  -4.1307  -4.1067  -4.1067  -4.0531  -4.0531  -3.8246  -3.8246
    -3.8169  -3.8169  -3.7185  -3.7185   5.2446   5.2446   5.6518   5.6518
     5.6817   5.6817   5.6966   5.6966   6.9595   6.9595   6.9847   6.9847
     7.0326   7.0326   7.5586   7.5586   7.5660   7.5660   7.8201   7.8201
     8.1521   8.1521   8.2957   8.2957   8.9371   8.9371   8.9989   8.9989
     9.0239   9.0239   9.1338   9.1338   9.2729   9.2729  10.0575  10.0575
    12.2845  12.2845  13.9837  13.9837  14.0310  14.0310  14.1852  14.1852
    14.4644  14.4644  14.9492  14.9492  15.9198  15.9198  17.1886  17.1886
    17.3447  17.3447  17.4370  17.4370  17.9543

          k = 0.3000 0.5000 0.0000 ( 18510 PWs)   bands (ev):

   -48.9389 -48.9388 -48.9375 -48.9375 -23.2522 -23.2522 -23.2474 -23.2474
   -23.2353 -23.2353 -23.1701 -23.1701 -23.1700 -23.1700 -23.1664 -23.1664
   -22.0907 -22.0907 -22.0840 -22.0840  -6.8865  -6.8865  -6.2730  -6.2730
    -5.9821  -5.9821  -5.7278  -5.7278  -5.7107  -5.7107  -5.4565  -5.4565
    -4.1059  -4.1059  -4.1028  -4.1028  -4.0704  -4.0704  -3.8023  -3.8023
    -3.7960  -3.7960  -3.6907  -3.6907   5.2323   5.2323   5.5197   5.5197
     5.5650   5.5650   5.5900   5.5900   7.0396   7.0396   7.0732   7.0732
     7.0995   7.0995   7.5743   7.5743   7.6427   7.6427   7.7972   7.7972
     8.2194   8.2194   8.3451   8.3451   8.7688   8.7688   8.9162   8.9162
     8.9350   8.9350   9.2152   9.2152   9.3310   9.3310  10.1015  10.1015
    12.1446  12.1446  14.0966  14.0966  14.1293  14.1294  14.2618  14.2618
    14.4359  14.4359  14.9951  14.9951  15.8050  15.8050  17.0047  17.0047
    17.3838  17.3838  17.4502  17.4502  17.9901

          k = 0.3500 0.5000 0.0000 ( 18498 PWs)   bands (ev):

   -48.9389 -48.9388 -48.9375 -48.9375 -23.2529 -23.2529 -23.2506 -23.2506
   -23.2387 -23.2387 -23.1699 -23.1699 -23.1665 -23.1665 -23.1630 -23.1630
   -22.0897 -22.0897 -22.0844 -22.0844  -6.9244  -6.9244  -6.2715  -6.2715
    -5.9924  -5.9924  -5.7397  -5.7397  -5.7347  -5.7347  -5.3989  -5.3989
    -4.1055  -4.1055  -4.0877  -4.0877  -4.0794  -4.0794  -3.7823  -3.7823
    -3.7743  -3.7743  -3.6669  -3.6669   5.2140   5.2140   5.4129   5.4129
     5.4677   5.4677   5.5140   5.5140   7.1007   7.1007   7.1108   7.1108
     7.2351   7.2351   7.5902   7.5902   7.6930   7.6930   7.7746   7.7746
     8.1373   8.1373   8.5094   8.5094   8.6007   8.6007   8.8419   8.8419
     8.8534   8.8534   9.3119   9.3119   9.3854   9.3854  10.1341  10.1341
    12.0270  12.0270  14.1858  14.1858  14.2104  14.2104  14.3302  14.3302
    14.4156  14.4156  15.0301  15.0301  15.7014  15.7014  16.8469  16.8469
    17.4168  17.4168  17.4683  17.4683  18.0174

          k = 0.4000 0.5000 0.0000 ( 18490 PWs)   bands (ev):

   -48.9389 -48.9388 -48.9375 -48.9375 -23.2553 -23.2553 -23.2509 -23.2509
   -23.2413 -23.2413 -23.1699 -23.1699 -23.1639 -23.1639 -23.1604 -23.1604
   -22.0890 -22.0890 -22.0847 -22.0847  -6.9528  -6.9528  -6.2702  -6.2702
    -6.0003  -6.0003  -5.7536  -5.7536  -5.7490  -5.7490  -5.3541  -5.3541
    -4.1052  -4.1052  -4.0985  -4.0985  -4.0660  -4.0660  -3.7664  -3.7664
    -3.7552  -3.7552  -3.6486  -3.6486   5.1906   5.1906   5.3347   5.3347
     5.4065   5.4065   5.4569   5.4569   7.1420   7.1420   7.1450   7.1450
     7.3833   7.3833   7.6054   7.6054   7.7221   7.7221   7.7543   7.7543
     8.0412   8.0412   8.4605   8.4605   8.6349   8.6349   8.7871   8.7871
     8.7874   8.7874   9.3956   9.3956   9.4302   9.4302  10.1563  10.1563
    11.9374  11.9374  14.2498  14.2498  14.2651  14.2651  14.3841  14.3841
    14.4071  14.4071  15.0523  15.0523  15.6215  15.6215  16.7258  16.7258
    17.4422  17.4422  17.4856  17.4856  18.0355

          k = 0.4500 0.5000 0.0000 ( 18536 PWs)   bands (ev):

   -48.9389 -48.9388 -48.9375 -48.9375 -23.2571 -23.2571 -23.2509 -23.2508
   -23.2428 -23.2428 -23.1699 -23.1699 -23.1623 -23.1623 -23.1589 -23.1589
   -22.0885 -22.0885 -22.0850 -22.0850  -6.9703  -6.9703  -6.2694  -6.2694
    -6.0053  -6.0053  -5.7655  -5.7654  -5.7549  -5.7549  -5.3256  -5.3256
    -4.1062  -4.1062  -4.1051  -4.1051  -4.0578  -4.0578  -3.7562  -3.7562
    -3.7422  -3.7422  -3.6372  -3.6372   5.1698   5.1698   5.2869   5.2869
     5.3758   5.3758   5.4215   5.4215   7.1629   7.1629   7.1719   7.1719
     7.5322   7.5322   7.6174   7.6174   7.7358   7.7358   7.7392   7.7392
     7.9255   7.9255   8.3728   8.3728   8.7137   8.7137   8.7442   8.7442
     8.7538   8.7538   9.4518   9.4518   9.4598   9.4598  10.1691  10.1691
    11.8810  11.8810  14.2880  14.2880  14.2910  14.2910  14.4098  14.4098
    14.4185  14.4185  15.0629  15.0629  15.5725  15.5725  16.6497  16.6497
    17.4585  17.4585  17.4975  17.4975  18.0454

          k = 0.5000 0.5000 0.0000 ( 18544 PWs)   bands (ev):

   -48.9389 -48.9388 -48.9375 -48.9375 -23.2577 -23.2577 -23.2508 -23.2508
   -23.2434 -23.2434 -23.1699 -23.1699 -23.1618 -23.1618 -23.1584 -23.1584
   -22.0883 -22.0883 -22.0850 -22.0850  -6.9762  -6.9762  -6.2692  -6.2692
    -6.0070  -6.0069  -5.7695  -5.7695  -5.7570  -5.7570  -5.3159  -5.3159
    -4.1089  -4.1089  -4.1050  -4.1050  -4.0551  -4.0551  -3.7527  -3.7527
    -3.7375  -3.7375  -3.6333  -3.6333   5.1614   5.1614   5.2709   5.2709
     5.3668   5.3668   5.4095   5.4095   7.1703   7.1703   7.1810   7.1810
     7.6222   7.6222   7.6229   7.6229   7.7334   7.7334   7.7385   7.7385
     7.8462   7.8462   8.3444   8.3444   8.7291   8.7291   8.7406   8.7406
     8.7426   8.7426   9.4702   9.4702   9.4716   9.4716  10.1733  10.1733
    11.8617  11.8617  14.2974  14.2974  14.3007  14.3007  14.4130  14.4130
    14.4304  14.4304  15.0657  15.0657  15.5562  15.5562  16.6237  16.6237
    17.4641  17.4641  17.5018  17.5018  18.0486

          k = 0.4500 0.4500 0.0000 ( 18524 PWs)   bands (ev):

   -48.9389 -48.9388 -48.9375 -48.9374 -23.2574 -23.2556 -23.2511 -23.2506
   -23.2433 -23.2414 -23.1700 -23.1698 -23.1638 -23.1619 -23.1603 -23.1584
   -22.0891 -22.0882 -22.0851 -22.0846  -6.9680  -6.9607  -6.2909  -6.2480
    -6.0084  -5.9992  -5.7618  -5.7604  -5.7575  -5.7490  -5.3409  -5.3301
    -4.1099  -4.1060  -4.1039  -4.0969  -4.0636  -4.0564  -3.7648  -3.7547
    -3.7496  -3.7451  -3.6438  -3.6383   5.1618   5.1902   5.2702   5.3354
     5.3680   5.4053   5.4297   5.4376   7.1277   7.1375   7.1847   7.1888
     7.3706   7.6108   7.6165   7.6186   7.7082   7.7219   7.7665   7.7704
     7.8709   8.0210   8.3624   8.4379   8.6317   8.7265   8.7319   8.7472
     8.7866   8.7983   9.3917   9.4268   9.4735   9.4752  10.1547  10.1747
    11.8565  11.9425  14.2586  14.2626  14.2773  14.2993  14.3977  14.4055
    14.4153  14.4313  15.0469  15.0714  15.5572  15.6204  16.6203  16.7278
    17.4121  17.4506  17.4924  17.5389  17.9981

          k = 0.4000 0.4000 0.0000 ( 18494 PWs)   bands (ev):

   -48.9390 -48.9387 -48.9376 -48.9373 -23.2565 -23.2521 -23.2512 -23.2484
   -23.2430 -23.2357 -23.1703 -23.1697 -23.1696 -23.1661 -23.1621 -23.1587
   -22.0913 -22.0880 -22.0854 -22.0835  -6.9439  -6.9156  -6.3509  -6.1859
    -6.0125  -5.9768  -5.7628  -5.7394  -5.7335  -5.7254  -5.4112  -5.3699
    -4.1129  -4.1089  -4.1006  -4.0879  -4.0635  -4.0602  -3.8003  -3.7852
    -3.7671  -3.7584  -3.6749  -3.6526   5.1630   5.2304   5.2682   5.3717
     5.4882   5.5211   5.5230   5.5607   7.0124   7.0180   7.0258   7.2267
     7.2273   7.5779   7.6036   7.6136   7.6180   7.6878   7.8508   7.8531
     7.9449   8.1513   8.3308   8.4129   8.6290   8.7198   8.7671   8.7680
     8.9387   8.9473   9.1956   9.3169   9.4835   9.4858  10.0962  10.1788
    11.8417  12.1628  14.1020  14.1082  14.1502  14.3060  14.3624  14.4241
    14.4388  14.4693  14.9713  15.0883  15.5604  15.8042  16.6077  16.9964
    17.2609  17.3109  17.5670  17.6564  17.8429

          k = 0.3500 0.3500 0.0000 ( 18530 PWs)   bands (ev):

   -48.9391 -48.9386 -48.9377 -48.9372 -23.2554 -23.2532 -23.2503 -23.2425
   -23.2388 -23.2267 -23.1788 -23.1753 -23.1705 -23.1692 -23.1625 -23.1590
   -22.0948 -22.0876 -22.0857 -22.0818  -6.9067  -6.8444  -6.4378  -6.0872
    -6.0187  -5.9422  -5.7797  -5.7064  -5.6905  -5.6868  -5.5127  -5.4282
    -4.1253  -4.1177  -4.1136  -4.0954  -4.0660  -4.0151  -3.8570  -3.8420
    -3.8021  -3.7585  -3.7246  -3.6738   5.1648   5.2491   5.2652   5.3768
     5.5793   5.6585   5.8158   5.8484   6.6744   6.8753   6.8812   7.2718
     7.2917   7.3921   7.5278   7.6199   7.6297   7.6318   7.8990   7.9744
     7.9748   8.0681   8.2426   8.4901   8.5932   8.7135   8.8053   8.9823
     9.0574   9.1467   9.1526   9.1808   9.5004   9.5032   9.9920  10.1851
    11.8190  12.4768  13.8402  13.8446  13.9048  14.3175  14.3551  14.4477
    14.5187  14.5503  14.8435  15.1150  15.5659  16.0436  16.5789  17.0354
    17.1037  17.2859  17.5845  17.6787  17.8521

          k = 0.3000 0.3000 0.0000 ( 18515 PWs)   bands (ev):

   -48.9393 -48.9384 -48.9379 -48.9370 -23.2561 -23.2524 -23.2496 -23.2419
   -23.2262 -23.2154 -23.1902 -23.1866 -23.1710 -23.1687 -23.1630 -23.1595
   -22.0992 -22.0871 -22.0862 -22.0796  -6.8609  -6.7532  -6.5401  -6.0264
    -5.9592  -5.8993  -5.8106  -5.6968  -5.6347  -5.6339  -5.5967  -5.4965
    -4.1716  -4.1242  -4.1202  -4.0887  -4.0732  -3.9590  -3.9312  -3.9162
    -3.8477  -3.7894  -3.7505  -3.6983   5.1671   5.2577   5.2614   5.3823
     5.6942   5.8471   6.1848   6.2281   6.3610   6.7263   6.7310   7.0604
     7.3317   7.3700   7.3819   7.4694   7.5570   7.6525   7.6557   8.1308
     8.1311   8.2411   8.3343   8.5079   8.5888   8.7162   8.8334   8.8626
     9.0510   9.3610   9.3777   9.3808   9.5241   9.5274   9.8360  10.1930
    11.7910  12.8410  13.5039  13.5068  13.5841  14.3280  14.3556  14.5022
    14.6321  14.6650  14.6971  15.1481  15.5742  16.2599  16.5224  16.7699
    16.8499  17.2485  17.4084  17.8187  18.1152

          k = 0.2500 0.2500 0.0000 ( 18537 PWs)   bands (ev):

   -48.9395 -48.9382 -48.9381 -48.9368 -23.2582 -23.2504 -23.2490 -23.2413
   -23.2120 -23.2029 -23.2028 -23.1990 -23.1716 -23.1682 -23.1635 -23.1600
   -22.1041 -22.0868 -22.0866 -22.0772  -6.8130  -6.6492  -6.6475  -6.0348
    -5.8544  -5.8525  -5.8121  -5.7927  -5.5713  -5.5678  -5.5666  -5.5655
    -4.2221  -4.1336  -4.1303  -4.0812  -4.0810  -4.0158  -4.0019  -3.9023
    -3.9004  -3.8645  -3.7334  -3.7212   5.1697   5.2569   5.2630   5.3855
     5.8219   6.0830   6.0834   6.5662   6.5869   6.6161   6.6496   6.6522
     6.8723   7.3837   7.3993   7.4701   7.4779   7.6799   7.6820   8.3160
     8.3173   8.4123   8.4294   8.4664   8.7018   8.7428   8.7559   8.9440
     8.9442   9.5536   9.5572   9.6081   9.6083   9.6246   9.6262  10.2014
    11.7606  13.1223  13.1245  13.2195  13.2204  14.3323  14.3585  14.5609
    14.6002  14.7710  14.8065  15.1838  15.5853  16.4167  16.4224  16.4951
    16.5742  16.8790  17.3800  17.6516  17.9743

          k = 0.2000 0.2000 0.0000 ( 18531 PWs)   bands (ev):

   -48.9397 -48.9383 -48.9380 -48.9366 -23.2603 -23.2483 -23.2483 -23.2406
   -23.2154 -23.2115 -23.1978 -23.1903 -23.1721 -23.1677 -23.1641 -23.1605
   -22.1091 -22.0873 -22.0861 -22.0748  -6.7714  -6.7509  -6.5410  -6.0431
    -5.8995  -5.8990  -5.8144  -5.6590  -5.6328  -5.5001  -5.4998  -5.4967
    -4.2716  -4.1584  -4.1544  -4.0901  -4.0885  -4.0836  -4.0734  -3.9574
    -3.9433  -3.8490  -3.7378  -3.7096   5.1722   5.2511   5.2671   5.3821
     5.8478   5.9499   6.2247   6.3625   6.3965   6.4657   6.4661   6.9923
     7.0626   7.3216   7.3807   7.4684   7.5607   7.7101   7.7136   8.3171
     8.5216   8.5219   8.5239   8.7246   8.7456   8.8092   8.8201   8.8737
     9.0515   9.3610   9.5897   9.5936   9.8150   9.8195   9.8391  10.2093
    11.7309  12.7237  12.7259  12.8404  13.5846  14.3310  14.3621  14.4590
    14.7315  14.9248  14.9665  15.2191  15.5989  16.2359  16.2630  16.3029
    16.5157  16.5178  17.0923  17.2995  17.8627

          k = 0.1500 0.1500 0.0000 ( 18527 PWs)   bands (ev):

   -48.9399 -48.9385 -48.9378 -48.9364 -23.2623 -23.2477 -23.2463 -23.2401
   -23.2267 -23.2226 -23.1848 -23.1789 -23.1726 -23.1672 -23.1645 -23.1609
   -22.1137 -22.0878 -22.0856 -22.0726  -6.8418  -6.7437  -6.4377  -6.0506
    -5.9802  -5.9429  -5.7859  -5.6891  -5.5152  -5.4286  -5.4280  -5.4263
    -4.3156  -4.2326  -4.2177  -4.1217  -4.1174  -4.0952  -4.0663  -4.0181
    -4.0125  -3.8044  -3.7455  -3.6839   5.1745   5.2423   5.2703   5.3618
     5.6596   5.8451   6.0038   6.0658   6.3678   6.3685   6.6767   7.2627
     7.2964   7.3329   7.3960   7.5319   7.6357   7.7388   7.7430   8.2269
     8.6009   8.7151   8.7330   8.7356   8.7981   8.9315   8.9800   9.0597
     9.0701   9.1808   9.6321   9.6361   9.9887   9.9969   9.9980  10.2158
    11.7049  12.3377  12.3407  12.4765  13.9055  14.3252  14.3653  14.3945
    14.8817  15.0741  15.1327  15.2555  15.6138  16.0116  16.0410  16.0615
    16.1879  16.5722  16.5723  17.2134  17.5721

          k = 0.1000 0.1000 0.0000 ( 18547 PWs)   bands (ev):

   -48.9400 -48.9386 -48.9377 -48.9363 -23.2638 -23.2473 -23.2448 -23.2397
   -23.2355 -23.2314 -23.1744 -23.1730 -23.1701 -23.1666 -23.1648 -23.1612
   -22.1174 -22.0882 -22.0852 -22.0708  -6.9127  -6.7326  -6.3495  -6.0570
    -6.0278  -5.9783  -5.7719  -5.7314  -5.3973  -5.3694  -5.3626  -5.3578
    -4.3504  -4.3140  -4.2959  -4.1327  -4.1256  -4.1006  -4.0801  -4.0604
    -4.0598  -3.7716  -3.7444  -3.6612   5.1763   5.2243   5.2729   5.3045
     5.5224   5.5567   5.7428   6.1581   6.2962   6.2972   7.0182   7.2163
     7.2325   7.5832   7.5850   7.6050   7.6923   7.7619   7.7667   8.1391
     8.6203   8.7029   8.7638   8.7951   8.9234   8.9262   9.0247   9.1921
     9.3158   9.3990   9.6812   9.6849  10.1031  10.1177  10.1322  10.2200
    11.6846  11.9999  12.0044  12.1630  14.1559  14.3153  14.3646  14.3678
    15.0222  15.1795  15.2868  15.3043  15.6273  15.7900  15.8340  15.8689
    15.8935  16.1753  16.6015  17.1419  17.3177

          k = 0.0500 0.0500 0.0000 ( 18577 PWs)   bands (ev):

   -48.9401 -48.9387 -48.9376 -48.9362 -23.2648 -23.2470 -23.2441 -23.2409
   -23.2397 -23.2367 -23.1732 -23.1680 -23.1670 -23.1648 -23.1638 -23.1612
   -22.1198 -22.0884 -22.0850 -22.0697  -6.9578  -6.7322  -6.2883  -6.0619
    -6.0481  -6.0010  -5.7716  -5.7550  -5.3294  -5.3219  -5.3141  -5.3049
    -4.3748  -4.3741  -4.3522  -4.1392  -4.1293  -4.1198  -4.1045  -4.0917
    -4.0567  -3.7534  -3.7379  -3.6458   5.1774   5.1859   5.2183   5.2745
     5.3990   5.4392   5.6282   6.2175   6.2527   6.2540   7.1867   7.1910
     7.3697   7.6166   7.7078   7.7274   7.7366   7.7769   7.7819   8.0164
     8.4128   8.7204   8.7440   8.7535   9.0566   9.0605   9.0881   9.3879
     9.4249   9.6565   9.7299   9.7334  10.1633  10.1945  10.2143  10.2222
    11.6715  11.7584  11.7641  11.9432  14.3073  14.3110  14.3548  14.3718
    15.1227  15.2162  15.3374  15.4019  15.5849  15.6167  15.6772  15.7237
    15.7623  15.9649  16.6146  17.0943  17.1451

          k = 0.0000 0.0000 0.0000 ( 18577 PWs)   bands (ev):

   -48.9402 -48.9388 -48.9376 -48.9362 -23.2652 -23.2469 -23.2445 -23.2422
   -23.2403 -23.2380 -23.1733 -23.1669 -23.1664 -23.1642 -23.1625 -23.1607
   -22.1206 -22.0885 -22.0849 -22.0693  -6.9733  -6.7334  -6.2660  -6.0640
    -6.0527  -6.0089  -5.7757  -5.7603  -5.3151  -5.2980  -5.2959  -5.2826
    -4.3965  -4.3870  -4.3695  -4.1446  -4.1305  -4.1304  -4.1079  -4.1012
    -4.0554  -3.7484  -3.7337  -3.6404   5.1581   5.1759   5.1786   5.2751
     5.3594   5.4113   5.6011   6.2379   6.2382   6.2395   7.1759   7.1773
     7.6275   7.6288   7.7347   7.7419   7.7821   7.7852   7.7890   7.8431
     8.3156   8.7296   8.7376   8.7553   9.0991   9.1086   9.1156   9.4650
     9.4704   9.7528   9.7529   9.7595  10.1828  10.2147  10.2273  10.2416
    11.6602  11.6747  11.6751  11.8626  14.3046  14.3518  14.3527  14.3844
    15.1592  15.2187  15.3227  15.4458  15.5054  15.5808  15.6609  15.6855
    15.7237  15.9022  16.6183  17.0705  17.0846

          k = 0.0000 0.0000 0.0354 ( 18581 PWs)   bands (ev):

   -48.9401 -48.9388 -48.9375 -48.9362 -23.2646 -23.2464 -23.2444 -23.2422
   -23.2403 -23.2381 -23.1739 -23.1673 -23.1663 -23.1642 -23.1626 -23.1607
   -22.1204 -22.0887 -22.0848 -22.0694  -6.9712  -6.7330  -6.2607  -6.0626
    -6.0525  -6.0092  -5.7739  -5.7582  -5.3213  -5.3027  -5.3026  -5.2875
    -4.3945  -4.3811  -4.3637  -4.1443  -4.1304  -4.1268  -4.1081  -4.1014
    -4.0576  -3.7515  -3.7368  -3.6430   5.1582   5.1758   5.1892   5.2912
     5.3598   5.4163   5.6076   6.2343   6.2415   6.2418   7.1647   7.1661
     7.6253   7.6271   7.7438   7.7507   7.7695   7.7839   7.7877   7.8493
     8.3207   8.7102   8.7442   8.7690   9.0873   9.1029   9.1034   9.4658
     9.4713   9.7272   9.7466   9.7533  10.1832  10.2082  10.2204  10.2418
    11.6757  11.6835  11.6981  11.8614  14.2906  14.3375  14.3561  14.3888
    15.1609  15.2290  15.3158  15.4441  15.5054  15.5763  15.6704  15.6936
    15.7345  15.9166  16.6446  17.0868  17.0886

          k = 0.0000 0.0000 0.0707 ( 18581 PWs)   bands (ev):

   -48.9401 -48.9388 -48.9375 -48.9362 -23.2630 -23.2449 -23.2444 -23.2421
   -23.2404 -23.2381 -23.1756 -23.1687 -23.1663 -23.1641 -23.1627 -23.1608
   -22.1198 -22.0892 -22.0845 -22.0697  -6.9651  -6.7323  -6.2450  -6.0583
    -6.0518  -6.0102  -5.7686  -5.7519  -5.3395  -5.3230  -5.3160  -5.3016
    -4.3886  -4.3640  -4.3470  -4.1437  -4.1300  -4.1161  -4.1088  -4.1021
    -4.0642  -3.7606  -3.7460  -3.6507   5.1586   5.1755   5.2188   5.3393
     5.3608   5.4314   5.6292   6.2190   6.2525   6.2527   7.1324   7.1342
     7.6208   7.6236   7.7317   7.7689   7.7751   7.7801   7.7838   7.8679
     8.3355   8.6297   8.7865   8.8091   9.0523   9.0674   9.0860   9.4681
     9.4741   9.6532   9.7296   9.7364  10.1845  10.1885  10.1998  10.2422
    11.6788  11.7511  11.7649  11.8576  14.2487  14.2924  14.3691  14.4020
    15.1658  15.2483  15.2945  15.4390  15.5053  15.5648  15.7045  15.7210
    15.7666  15.9615  16.7208  17.1005  17.1346

          k = 0.0000 0.0000 0.1061 ( 18573 PWs)   bands (ev):

   -48.9401 -48.9388 -48.9375 -48.9362 -23.2603 -23.2442 -23.2425 -23.2420
   -23.2405 -23.2383 -23.1785 -23.1711 -23.1662 -23.1640 -23.1629 -23.1609
   -22.1188 -22.0902 -22.0841 -22.0702  -6.9551  -6.7318  -6.2190  -6.0506
    -6.0499  -6.0118  -5.7600  -5.7414  -5.3688  -5.3559  -5.3370  -5.3237
    -4.3789  -4.3370  -4.3205  -4.1426  -4.1294  -4.1099  -4.1031  -4.0989
    -4.0750  -3.7758  -3.7612  -3.6635   5.1591   5.1750   5.2599   5.3623
     5.4182   5.4562   5.6723   6.1940   6.2706   6.2709   7.0829   7.0850
     7.6172   7.6214   7.6687   7.7739   7.7774   7.8065   7.8120   7.8988
     8.3588   8.5008   8.8527   8.8723   8.9959   9.0094   9.0587   9.4721
     9.4786   9.5390   9.7060   9.7131  10.1555  10.1657  10.1867  10.2421
    11.6838  11.8514  11.8571  11.8699  14.1796  14.2186  14.3907  14.4238
    15.1740  15.2514  15.2579  15.4306  15.5052  15.5504  15.7630  15.7838
    15.8192  16.0413  16.8394  17.1200  17.2106

          k = 0.0000 0.0000 0.1414 ( 18565 PWs)   bands (ev):

   -48.9400 -48.9389 -48.9374 -48.9363 -23.2566 -23.2440 -23.2418 -23.2407
   -23.2393 -23.2384 -23.1823 -23.1744 -23.1660 -23.1639 -23.1631 -23.1610
   -22.1174 -22.0914 -22.0834 -22.0708  -6.9414  -6.7329  -6.1833  -6.0490
    -6.0363  -6.0139  -5.7486  -5.7270  -5.4077  -5.4004  -5.3639  -5.3521
    -4.3656  -4.3020  -4.2860  -4.1411  -4.1284  -4.1114  -4.1044  -4.0897
    -4.0758  -3.7966  -3.7821  -3.6811   5.1599   5.1742   5.3015   5.3645
     5.4901   5.5259   5.7464   6.1598   6.2959   6.2961   7.0209   7.0234
     7.5802   7.6162   7.6221   7.7654   7.7687   7.8543   7.8595   7.9420
     8.3309   8.3896   8.9211   8.9330   8.9375   8.9542   9.0220   9.3957
     9.4779   9.4848   9.6799   9.6874  10.1092  10.1185  10.1897  10.2413
    11.6908  11.8431  11.9940  12.0058  14.0843  14.1183  14.4208  14.4542
    15.1854  15.2064  15.2246  15.4191  15.5050  15.5372  15.8289  15.8911
    15.8983  16.1639  16.9867  17.1465  17.2869

          k = 0.0000 0.0000 0.1768 ( 18561 PWs)   bands (ev):

   -48.9400 -48.9389 -48.9374 -48.9364 -23.2520 -23.2438 -23.2416 -23.2409
   -23.2386 -23.2352 -23.1871 -23.1785 -23.1659 -23.1637 -23.1633 -23.1612
   -22.1157 -22.0930 -22.0826 -22.0716  -6.9245  -6.7367  -6.1385  -6.0470
    -6.0165  -6.0161  -5.7350  -5.7087  -5.4550  -5.4539  -5.3950  -5.3850
    -4.3489  -4.2608  -4.2453  -4.1392  -4.1272  -4.1133  -4.1083  -4.1057
    -4.0476  -3.8229  -3.8085  -3.7032   5.1607   5.1733   5.3344   5.3670
     5.5321   5.6599   5.8584   6.1174   6.3281   6.3283   6.9509   6.9538
     7.4666   7.6174   7.6260   7.7549   7.7579   7.9114   7.9164   7.9975
     8.1288   8.4271   8.8321   8.8424   8.9772   9.0360   9.0503   9.2348
     9.4855   9.4929   9.6540   9.6620  10.0501  10.0588  10.1933  10.2394
    11.6996  11.8328  12.1544  12.1655  13.9651  13.9940  14.4591  14.4929
    15.1426  15.1727  15.1999  15.4047  15.5049  15.5268  15.9103  15.9804
    16.0367  16.3354  17.1421  17.1772  17.1793

          k = 0.0000 0.0000 0.2121 ( 18541 PWs)   bands (ev):

   -48.9399 -48.9390 -48.9373 -48.9364 -23.2467 -23.2435 -23.2414 -23.2411
   -23.2389 -23.2305 -23.1927 -23.1833 -23.1657 -23.1635 -23.1635 -23.1614
   -22.1138 -22.0949 -22.0817 -22.0726  -6.9048  -6.7442  -6.0853  -6.0446
    -6.0194  -5.9881  -5.7211  -5.6868  -5.5178  -5.5037  -5.4287  -5.4208
    -4.3293  -4.2153  -4.2002  -4.1370  -4.1290  -4.1257  -4.1155  -4.1080
    -4.0153  -3.8543  -3.8400  -3.7295   5.1618   5.1723   5.3563   5.3698
     5.5814   5.8170   6.0082   6.0679   6.3673   6.3674   6.8767   6.8799
     7.3288   7.6178   7.6332   7.7427   7.7452   7.9044   7.9787   7.9824
     8.0653   8.4706   8.7337   8.7425   8.9260   9.0671   9.1437   9.1560
     9.4948   9.5026   9.6295   9.6379   9.9790   9.9874  10.1976  10.2365
    11.7101  11.8209  12.3318  12.3426  13.8244  13.8489  14.5052  14.5396
    15.0702  15.1054  15.2171  15.3878  15.5049  15.5193  16.0062  16.0849
    16.1856  16.5516  17.0539  17.1328  17.2174

          k = 0.0000 0.0000 0.2475 ( 18554 PWs)   bands (ev):

   -48.9398 -48.9391 -48.9372 -48.9365 -23.2435 -23.2414 -23.2411 -23.2404
   -23.2392 -23.2251 -23.1989 -23.1887 -23.1654 -23.1638 -23.1633 -23.1616
   -22.1116 -22.0970 -22.0807 -22.0736  -6.8830  -6.7558  -6.0419  -6.0248
    -6.0225  -5.9520  -5.7123  -5.6614  -5.5869  -5.5501  -5.4634  -5.4580
    -4.3072  -4.1672  -4.1525  -4.1525  -4.1346  -4.1239  -4.1180  -4.1102
    -3.9799  -3.8903  -3.8761  -3.7596   5.1630   5.1711   5.3691   5.3727
     5.6366   5.9931   6.0122   6.1909   6.4129   6.4130   6.8013   6.8049
     7.1686   7.5819   7.6432   7.7043   7.7292   7.7311   8.0524   8.0568
     8.1456   8.5193   8.6299   8.6375   8.8699   8.9012   9.2567   9.2675
     9.5059   9.5141   9.6068   9.6155   9.8970   9.9051  10.2024  10.2328
    11.7220  11.8076  12.5208  12.5315  13.6655  13.6862  14.5589  14.5939
    14.9927  15.0300  15.2365  15.3686  15.5049  15.5140  16.1152  16.2022
    16.3435  16.7990  16.9208  17.0106  17.2592

          k = 0.0000 0.0000 0.2828 ( 18514 PWs)   bands (ev):

   -48.9398 -48.9392 -48.9372 -48.9366 -23.2431 -23.2417 -23.2408 -23.2395
   -23.2339 -23.2193 -23.2056 -23.1945 -23.1652 -23.1640 -23.1630 -23.1619
   -22.1092 -22.0993 -22.0795 -22.0747  -6.8597  -6.7715  -6.0390  -6.0258
    -5.9582  -5.9084  -5.7208  -5.6604  -5.6330  -5.5786  -5.4977  -5.4956
    -4.2830  -4.1778  -4.1320  -4.1218  -4.1206  -4.1179  -4.1125  -4.1034
    -3.9425  -3.9304  -3.9162  -3.7927   5.1643   5.1698   5.3753   5.3758
     5.6965   5.9521   6.1836   6.3998   6.4643   6.4651   6.7267   6.7311
     6.9898   7.3763   7.6555   7.6663   7.7148   7.7160   8.1346   8.1392
     8.2385   8.5246   8.5312   8.5726   8.7433   8.8106   9.3719   9.3817
     9.5187   9.5271   9.5859   9.5948   9.8052   9.8134  10.2075  10.2284
    11.7351  11.7934  12.7167  12.7278  13.4917  13.5093  14.6195  14.6552
    14.9134  14.9512  15.2577  15.3478  15.5052  15.5105  16.2354  16.3296
    16.5113  16.7819  16.8793  17.0646  17.2445

          k = 0.0000 0.0000 0.3182 ( 18522 PWs)   bands (ev):

   -48.9397 -48.9392 -48.9371 -48.9366 -23.2428 -23.2420 -23.2405 -23.2397
   -23.2270 -23.2132 -23.2126 -23.2007 -23.1650 -23.1642 -23.1628 -23.1621
   -22.1067 -22.1017 -22.0784 -22.0759  -6.8359  -6.7908  -6.0358  -6.0292
    -5.8869  -5.8588  -5.7560  -5.7362  -5.6017  -5.5781  -5.5325  -5.5301
    -4.2574  -4.2041  -4.1292  -4.1234  -4.1196  -4.1149  -4.0686  -4.0542
    -3.9740  -3.9597  -3.9042  -3.8284   5.1656   5.1684   5.3776   5.3786
     5.7595   5.8889   6.3820   6.5202   6.5231   6.6291   6.6548   6.6614
     6.7983   7.1249   7.6695   7.6733   7.7001   7.7003   8.2240   8.2289
     8.3445   8.4204   8.4263   8.5970   8.6295   8.7498   9.4865   9.4956
     9.5331   9.5418   9.5667   9.5756   9.7051   9.7134  10.2128  10.2234
    11.7492  11.7787  12.9154  12.9274  13.3064  13.3216  14.6864  14.7228
    14.8347  14.8723  15.2800  15.3257  15.5057  15.5082  16.3647  16.4642
    16.6408  16.6885  16.7423  17.0596  17.3441

          k = 0.0000 0.0000 0.3536 ( 18458 PWs)   bands (ev):

   -48.9397 -48.9392 -48.9371 -48.9366 -23.2426 -23.2422 -23.2404 -23.2399
   -23.2200 -23.2196 -23.2072 -23.2067 -23.1648 -23.1644 -23.1627 -23.1622
   -22.1042 -22.1042 -22.0771 -22.0771  -6.8127  -6.8124  -6.0327  -6.0324
    -5.8123  -5.8123  -5.8060  -5.8060  -5.5682  -5.5680  -5.5585  -5.5583
    -4.2309  -4.2309  -4.1263  -4.1263  -4.1173  -4.1173  -4.0203  -4.0203
    -4.0061  -4.0060  -3.8658  -3.8658   5.1669   5.1672   5.3787   5.3790
     5.8240   5.8243   6.5539   6.5540   6.5865   6.5867   6.6258   6.6258
     6.8728   6.8729   7.6846   7.6847   7.6858   7.6859   8.3197   8.3197
     8.3250   8.3250   8.4638   8.4641   8.6889   8.6891   9.5490   9.5493
     9.5578   9.5581   9.5982   9.5983   9.6068   9.6069  10.2181  10.2184
    11.7637  11.7640  13.1131  13.1133  13.1263  13.1266  14.7583  14.7587
    14.7954  14.7957  15.3027  15.3031  15.5065  15.5069  16.5007  16.5008
    16.6028  16.6028  16.8724  16.8727  17.3817

          k = 0.0000 0.0500 0.3536 ( 18504 PWs)   bands (ev):

   -48.9397 -48.9392 -48.9371 -48.9366 -23.2422 -23.2418 -23.2399 -23.2394
   -23.2199 -23.2195 -23.2072 -23.2068 -23.1654 -23.1649 -23.1632 -23.1627
   -22.1040 -22.1040 -22.0773 -22.0773  -6.8071  -6.8068  -6.0297  -6.0294
    -5.8384  -5.8383  -5.7982  -5.7982  -5.5707  -5.5704  -5.5539  -5.5537
    -4.2343  -4.2343  -4.1267  -4.1267  -4.1122  -4.1122  -4.0216  -4.0216
    -3.9971  -3.9971  -3.8656  -3.8656   5.1835   5.1839   5.3957   5.3960
     5.8322   5.8324   6.5517   6.5519   6.5910   6.5912   6.6224   6.6225
     6.8783   6.8783   7.6518   7.6520   7.6751   7.6752   8.2539   8.2539
     8.2744   8.2745   8.5305   8.5306   8.7424   8.7426   9.5049   9.5052
     9.5333   9.5336   9.5964   9.5965   9.6084   9.6085  10.2075  10.2078
    11.8057  11.8060  13.1173  13.1176  13.1310  13.1313  14.7488  14.7491
    14.7804  14.7807  15.2824  15.2828  15.5474  15.5478  16.5235  16.5236
    16.6186  16.6186  16.8903  16.8906  17.4021

          k = 0.0000 0.1000 0.3536 ( 18522 PWs)   bands (ev):

   -48.9396 -48.9392 -48.9372 -48.9367 -23.2410 -23.2406 -23.2385 -23.2380
   -23.2196 -23.2192 -23.2074 -23.2069 -23.1670 -23.1666 -23.1646 -23.1641
   -22.1033 -22.1033 -22.0776 -22.0776  -6.7903  -6.7901  -6.0209  -6.0206
    -5.8839  -5.8838  -5.8013  -5.8013  -5.5781  -5.5778  -5.5454  -5.5452
    -4.2415  -4.2415  -4.1278  -4.1278  -4.0982  -4.0982  -4.0254  -4.0254
    -3.9734  -3.9734  -3.8646  -3.8645   5.2331   5.2334   5.4455   5.4458
     5.8568   5.8571   6.5460   6.5461   6.6044   6.6046   6.6137   6.6137
     6.8931   6.8931   7.5593   7.5594   7.6451   7.6452   8.1459   8.1460
     8.1693   8.1693   8.6312   8.6314   8.8555   8.8556   9.3946   9.3949
     9.4701   9.4703   9.5812   9.5813   9.6079   9.6080  10.1765  10.1768
    11.9232  11.9236  13.1310  13.1313  13.1458  13.1461  14.7184  14.7187
    14.7363  14.7367  15.2227  15.2231  15.6689  15.6693  16.5897  16.5897
    16.6656  16.6656  16.9427  16.9429  17.4595

          k = 0.0000 0.1500 0.3536 ( 18518 PWs)   bands (ev):

   -48.9396 -48.9391 -48.9372 -48.9368 -23.2391 -23.2386 -23.2362 -23.2357
   -23.2191 -23.2187 -23.2076 -23.2072 -23.1697 -23.1693 -23.1670 -23.1665
   -22.1023 -22.1023 -22.0782 -22.0782  -6.7629  -6.7627  -6.0065  -6.0062
    -5.9404  -5.9403  -5.8123  -5.8123  -5.5903  -5.5900  -5.5426  -5.5424
    -4.2463  -4.2463  -4.1295  -4.1295  -4.0787  -4.0786  -4.0312  -4.0312
    -3.9410  -3.9410  -3.8615  -3.8615   5.3147   5.3151   5.5251   5.5254
     5.8990   5.8993   6.5384   6.5385   6.6016   6.6017   6.6269   6.6271
     6.9143   6.9143   7.4286   7.4287   7.5916   7.5917   8.0264   8.0265
     8.0508   8.0508   8.7078   8.7079   8.9833   8.9834   9.2514   9.2516
     9.3839   9.3841   9.5541   9.5542   9.6032   9.6033  10.1272  10.1274
    12.0974  12.0977  13.1564  13.1566  13.1726  13.1729  14.6645  14.6648
    14.6659  14.6662  15.1264  15.1268  15.8648  15.8652  16.6929  16.6930
    16.7422  16.7423  17.0250  17.0253  17.5405

          k = 0.0000 0.2000 0.3536 ( 18550 PWs)   bands (ev):

   -48.9394 -48.9390 -48.9373 -48.9369 -23.2363 -23.2359 -23.2330 -23.2326
   -23.2184 -23.2180 -23.2079 -23.2075 -23.1733 -23.1729 -23.1702 -23.1697
   -22.1008 -22.1008 -22.0790 -22.0790  -6.7257  -6.7255  -6.0024  -6.0023
    -5.9869  -5.9866  -5.8265  -5.8265  -5.6071  -5.6069  -5.5520  -5.5518
    -4.2443  -4.2443  -4.1318  -4.1318  -4.0588  -4.0587  -4.0384  -4.0383
    -3.9051  -3.9050  -3.8546  -3.8546   5.4269   5.4272   5.6282   5.6286
     5.9611   5.9614   6.5318   6.5319   6.5883   6.5884   6.6586   6.6588
     6.9391   6.9391   7.2798   7.2799   7.5133   7.5134   7.8962   7.8963
     7.9259   7.9259   8.7031   8.7032   9.1095   9.1096   9.1390   9.1391
     9.2942   9.2944   9.5204   9.5205   9.5938   9.5939  10.0629  10.0632
    12.3089  12.3093  13.1960  13.1962  13.2139  13.2141  14.5726  14.5729
    14.5871  14.5874  14.9979  14.9983  16.1241  16.1245  16.8247  16.8248
    16.8462  16.8462  17.1295  17.1298  17.6214

          k = 0.0000 0.2500 0.3536 ( 18528 PWs)   bands (ev):

   -48.9393 -48.9388 -48.9375 -48.9370 -23.2329 -23.2325 -23.2291 -23.2286
   -23.2176 -23.2172 -23.2084 -23.2080 -23.1778 -23.1773 -23.1742 -23.1737
   -22.0991 -22.0991 -22.0801 -22.0801  -6.6799  -6.6796  -6.0663  -6.0662
    -5.9626  -5.9623  -5.8400  -5.8400  -5.6284  -5.6282  -5.5752  -5.5750
    -4.2342  -4.2342  -4.1345  -4.1345  -4.0461  -4.0461  -4.0440  -4.0440
    -3.8692  -3.8691  -3.8420  -3.8419   5.5674   5.5677   5.7448   5.7451
     6.0470   6.0472   6.5256   6.5256   6.5789   6.5790   6.6996   6.6998
     6.9645   6.9645   7.1298   7.1299   7.4126   7.4127   7.7574   7.7575
     7.7891   7.7891   8.5619   8.5621   9.1216   9.1217   9.2107   9.2108
     9.2374   9.2376   9.4847   9.4848   9.5784   9.5785   9.9887   9.9889
    12.5432  12.5436  13.2522  13.2525  13.2718  13.2721  14.4606  14.4610
    14.4884  14.4887  14.8424  14.8428  16.4332  16.4336  16.9744  16.9744
    16.9759  16.9760  17.2444  17.2446  17.6876

          k = 0.0000 0.3000 0.3536 ( 18494 PWs)   bands (ev):

   -48.9392 -48.9387 -48.9376 -48.9372 -23.2288 -23.2284 -23.2245 -23.2240
   -23.2167 -23.2162 -23.2089 -23.2085 -23.1829 -23.1824 -23.1788 -23.1784
   -22.0972 -22.0972 -22.0814 -22.0814  -6.6269  -6.6267  -6.1302  -6.1301
    -5.9343  -5.9341  -5.8496  -5.8496  -5.6537  -5.6535  -5.6105  -5.6104
    -4.2169  -4.2169  -4.1374  -4.1374  -4.0535  -4.0535  -4.0381  -4.0380
    -3.8360  -3.8360  -3.8237  -3.8237   5.7335   5.7338   5.8617   5.8620
     6.1592   6.1594   6.5083   6.5084   6.5905   6.5905   6.7502   6.7504
     6.9542   6.9543   7.0273   7.0273   7.2926   7.2927   7.6147   7.6148
     7.6358   7.6358   8.3362   8.3365   9.1560   9.1561   9.1745   9.1748
     9.3356   9.3357   9.4509   9.4510   9.5552   9.5552   9.9103   9.9105
    12.7900  12.7903  13.3264  13.3266  13.3477  13.3480  14.3342  14.3345
    14.3719  14.3722  14.6646  14.6650  16.7787  16.7791  17.1240  17.1240
    17.1377  17.1378  17.3548  17.3550  17.7453

          k = 0.0000 0.3500 0.3536 ( 18514 PWs)   bands (ev):

   -48.9390 -48.9385 -48.9378 -48.9373 -23.2242 -23.2238 -23.2193 -23.2188
   -23.2156 -23.2152 -23.2095 -23.2091 -23.1885 -23.1880 -23.1840 -23.1836
   -22.0951 -22.0951 -22.0829 -22.0829  -6.5686  -6.5684  -6.1932  -6.1931
    -5.9031  -5.9029  -5.8524  -5.8524  -5.6823  -5.6820  -5.6538  -5.6537
    -4.1949  -4.1949  -4.1402  -4.1402  -4.0600  -4.0600  -4.0408  -4.0408
    -3.8079  -3.8079  -3.8030  -3.8029   5.9217   5.9220   5.9704   5.9706
     6.2873   6.2875   6.4716   6.4717   6.6420   6.6421   6.8105   6.8107
     6.8399   6.8400   7.0526   7.0526   7.1522   7.1524   7.4722   7.4722
     7.4737   7.4738   8.0805   8.0808   9.1657   9.1659   9.1966   9.1967
     9.4218   9.4219   9.4229   9.4229   9.5248   9.5248   9.8344   9.8346
    13.0417  13.0421  13.4185  13.4188  13.4419  13.4422  14.1974  14.1977
    14.2416  14.2419  14.4688  14.4692  17.1445  17.1449  17.2949  17.2949
    17.3014  17.3015  17.4479  17.4480  17.7865

          k = 0.0000 0.4000 0.3536 ( 18520 PWs)   bands (ev):

   -48.9388 -48.9383 -48.9380 -48.9375 -23.2193 -23.2189 -23.2145 -23.2141
   -23.2137 -23.2132 -23.2102 -23.2098 -23.1944 -23.1939 -23.1897 -23.1892
   -22.0929 -22.0929 -22.0846 -22.0846  -6.5069  -6.5067  -6.2556  -6.2554
    -5.8704  -5.8701  -5.8467  -5.8467  -5.7130  -5.7127  -5.6994  -5.6993
    -4.1716  -4.1716  -4.1425  -4.1425  -4.0650  -4.0649  -4.0499  -4.0498
    -3.7865  -3.7865  -3.7841  -3.7841   6.0707   6.0709   6.1277   6.1280
     6.4028   6.4029   6.4161   6.4161   6.7267   6.7268   6.7548   6.7549
     6.8795   6.8797   6.9865   6.9867   7.1068   7.1069   7.3153   7.3154
     7.3398   7.3399   7.8187   7.8190   9.1864   9.1866   9.2295   9.2296
     9.3993   9.3994   9.4481   9.4482   9.5306   9.5307   9.7662   9.7663
    13.2928  13.2931  13.5279  13.5282  13.5531  13.5534  14.0545  14.0548
    14.1022  14.1025  14.2586  14.2589  17.4405  17.4405  17.4553  17.4553
    17.5200  17.5201  17.5617  17.5620  17.7917

          k = 0.0000 0.4500 0.3536 ( 18544 PWs)   bands (ev):

   -48.9386 -48.9382 -48.9381 -48.9377 -23.2151 -23.2149 -23.2128 -23.2126
   -23.2100 -23.2099 -23.2078 -23.2073 -23.2003 -23.1999 -23.1956 -23.1952
   -22.0907 -22.0907 -22.0865 -22.0865  -6.4438  -6.4436  -6.3178  -6.3176
    -5.8392  -5.8390  -5.8333  -5.8333  -5.7429  -5.7426  -5.7398  -5.7398
    -4.1518  -4.1518  -4.1441  -4.1441  -4.0680  -4.0680  -4.0609  -4.0609
    -3.7729  -3.7729  -3.7714  -3.7714   6.1658   6.1659   6.3422   6.3422
     6.3457   6.3461   6.4916   6.4918   6.6433   6.6435   6.7845   6.7848
     6.9042   6.9044   6.9670   6.9672   7.1682   7.1682   7.1797   7.1798
     7.2380   7.2380   7.5688   7.5690   9.2250   9.2252   9.2506   9.2506
     9.3847   9.3848   9.4024   9.4025   9.5900   9.5900   9.7058   9.7059
    13.5365  13.5368  13.6546  13.6548  13.6785  13.6788  13.9086  13.9089
    13.9589  13.9592  14.0384  14.0387  17.5639  17.5639  17.5835  17.5835
    17.6278  17.6278  17.7891  17.7891  17.9333

          k = 0.0000 0.5000 0.3536 ( 18528 PWs)   bands (ev):

   -48.9384 -48.9384 -48.9379 -48.9379 -23.2139 -23.2139 -23.2121 -23.2121
   -23.2069 -23.2069 -23.2050 -23.2050 -23.2017 -23.2017 -23.2013 -23.2012
   -22.0886 -22.0886 -22.0885 -22.0885  -6.3807  -6.3807  -6.3801  -6.3801
    -5.8230  -5.8230  -5.8220  -5.8220  -5.7597  -5.7597  -5.7594  -5.7594
    -4.1446  -4.1446  -4.1431  -4.1431  -4.0691  -4.0691  -4.0666  -4.0666
    -3.7680  -3.7680  -3.7671  -3.7671   6.2568   6.2568   6.2574   6.2574
     6.5566   6.5566   6.5583   6.5583   6.5775   6.5775   6.5793   6.5793
     7.0443   7.0443   7.0473   7.0473   7.0779   7.0779   7.0813   7.0813
     7.3564   7.3564   7.3569   7.3569   9.2512   9.2512   9.2579   9.2579
     9.3722   9.3722   9.3796   9.3796   9.6487   9.6487   9.6490   9.6490
    13.7428  13.7428  13.7473  13.7473  13.8025  13.8025  13.8134  13.8134
    13.8291  13.8291  13.8365  13.8365  17.5909  17.5909  17.6204  17.6204
    17.7630  17.7630  17.8159  17.8163  17.8646

          k = 0.0500 0.5000 0.3536 ( 18544 PWs)   bands (ev):

   -48.9384 -48.9384 -48.9379 -48.9379 -23.2150 -23.2150 -23.2129 -23.2129
   -23.2108 -23.2108 -23.2090 -23.2090 -23.1968 -23.1968 -23.1963 -23.1963
   -22.0885 -22.0885 -22.0885 -22.0885  -6.3902  -6.3902  -6.3897  -6.3897
    -5.8244  -5.8244  -5.8117  -5.8117  -5.7640  -5.7640  -5.7495  -5.7495
    -4.1641  -4.1641  -4.1160  -4.1160  -4.0968  -4.0968  -4.0330  -4.0330
    -3.7688  -3.7688  -3.7673  -3.7673   6.2233   6.2233   6.2245   6.2245
     6.4399   6.4399   6.4532   6.4532   6.6749   6.6749   6.7048   6.7048
     6.9776   6.9776   7.0269   7.0269   7.0825   7.0825   7.0984   7.0984
     7.4359   7.4359   7.4369   7.4369   9.2072   9.2072   9.2788   9.2788
     9.3363   9.3363   9.3840   9.3840   9.6422   9.6422   9.6463   9.6463
    13.6737  13.6737  13.6917  13.6917  13.8204  13.8204  13.8307  13.8307
    13.8869  13.8869  13.9108  13.9108  17.5924  17.5924  17.6401  17.6401
    17.7681  17.7681  17.8273  17.8273  17.8336

          k = 0.1000 0.5000 0.3536 ( 18516 PWs)   bands (ev):

   -48.9384 -48.9384 -48.9379 -48.9379 -23.2196 -23.2196 -23.2187 -23.2187
   -23.2116 -23.2116 -23.2110 -23.2110 -23.1903 -23.1903 -23.1898 -23.1898
   -22.0884 -22.0884 -22.0884 -22.0884  -6.4178  -6.4178  -6.4146  -6.4146
    -5.8276  -5.8276  -5.7850  -5.7850  -5.7703  -5.7703  -5.7284  -5.7284
    -4.1754  -4.1754  -4.1184  -4.1184  -4.0823  -4.0823  -3.9945  -3.9945
    -3.7709  -3.7709  -3.7678  -3.7678   6.1125   6.1125   6.1127   6.1127
     6.3646   6.3646   6.3783   6.3783   6.7554   6.7554   6.7888   6.7888
     6.9138   6.9138   6.9633   6.9633   7.1237   7.1237   7.1399   7.1399
     7.6005   7.6005   7.6108   7.6108   9.1449   9.1449   9.2703   9.2703
     9.2753   9.2753   9.3503   9.3503   9.6273   9.6273   9.6433   9.6433
    13.5861  13.5861  13.6074  13.6074  13.8660  13.8660  13.8737  13.8737
    13.9927  13.9927  14.0101  14.0101  17.5746  17.5746  17.6866  17.6866
    17.7265  17.7265  17.7873  17.7874  17.8323

          k = 0.1500 0.5000 0.3536 ( 18532 PWs)   bands (ev):

   -48.9384 -48.9384 -48.9379 -48.9379 -23.2257 -23.2257 -23.2252 -23.2252
   -23.2117 -23.2117 -23.2112 -23.2112 -23.1839 -23.1839 -23.1835 -23.1835
   -22.0882 -22.0882 -22.0882 -22.0882  -6.4562  -6.4562  -6.4504  -6.4504
    -5.8323  -5.8323  -5.7796  -5.7796  -5.7480  -5.7480  -5.6992  -5.6992
    -4.1775  -4.1775  -4.1316  -4.1316  -4.0455  -4.0455  -3.9553  -3.9553
    -3.7737  -3.7737  -3.7680  -3.7680   5.9541   5.9541   5.9559   5.9559
     6.3175   6.3175   6.3380   6.3380   6.7569   6.7569   6.7880   6.7880
     6.9261   6.9261   6.9701   6.9701   7.1802   7.1802   7.2018   7.2018
     7.7948   7.7948   7.8181   7.8181   9.0729   9.0729   9.1975   9.1975
     9.2233   9.2233   9.2764   9.2764   9.6150   9.6150   9.6434   9.6434
    13.5047  13.5047  13.5255  13.5255  13.9345  13.9345  13.9406  13.9406
    14.1021  14.1021  14.1134  14.1134  17.4542  17.4542  17.5089  17.5089
    17.7615  17.7615  17.7883  17.7884  17.8229

          k = 0.2000 0.5000 0.3536 ( 18496 PWs)   bands (ev):

   -48.9384 -48.9384 -48.9379 -48.9379 -23.2317 -23.2317 -23.2312 -23.2312
   -23.2116 -23.2116 -23.2112 -23.2112 -23.1781 -23.1781 -23.1776 -23.1776
   -22.0879 -22.0879 -22.0879 -22.0879  -6.4991  -6.4991  -6.4914  -6.4914
    -5.8381  -5.8381  -5.7912  -5.7912  -5.7072  -5.7072  -5.6668  -5.6668
    -4.1711  -4.1711  -4.1365  -4.1365  -4.0090  -4.0090  -3.9193  -3.9193
    -3.7755  -3.7755  -3.7671  -3.7671   5.7903   5.7903   5.7932   5.7932
     6.2721   6.2721   6.3000   6.3000   6.7207   6.7207   6.7450   6.7450
     6.9879   6.9879   7.0257   7.0257   7.2450   7.2450   7.2712   7.2712
     7.9959   7.9959   8.0342   8.0342   8.9946   8.9946   9.1007   9.1007
     9.1453   9.1453   9.1813   9.1813   9.6100   9.6100   9.6449   9.6449
    13.4313  13.4313  13.4498  13.4498  14.0169  14.0169  14.0220  14.0220
    14.2103  14.2103  14.2156  14.2156  17.2476  17.2476  17.2731  17.2731
    17.8136  17.8136  17.8174  17.8174  17.8760

          k = 0.2500 0.5000 0.3536 ( 18516 PWs)   bands (ev):

   -48.9384 -48.9384 -48.9379 -48.9379 -23.2371 -23.2371 -23.2367 -23.2367
   -23.2114 -23.2114 -23.2110 -23.2110 -23.1729 -23.1729 -23.1725 -23.1725
   -22.0876 -22.0876 -22.0876 -22.0876  -6.5413  -6.5413  -6.5329  -6.5329
    -5.8443  -5.8443  -5.8042  -5.8042  -5.6675  -5.6675  -5.6354  -5.6354
    -4.1575  -4.1575  -4.1337  -4.1337  -3.9763  -3.9763  -3.8920  -3.8920
    -3.7731  -3.7731  -3.7638  -3.7638   5.6384   5.6384   5.6415   5.6415
     6.2237   6.2237   6.2560   6.2560   6.6912   6.6912   6.7079   6.7079
     7.0606   7.0606   7.0938   7.0938   7.3096   7.3096   7.3368   7.3368
     8.1867   8.1867   8.2435   8.2435   8.9085   8.9085   8.9779   8.9779
     9.0587   9.0587   9.0913   9.0913   9.6101   9.6101   9.6451   9.6451
    13.3669  13.3669  13.3823  13.3823  14.1034  14.1034  14.1081  14.1081
    14.3125  14.3125  14.3129  14.3129  17.0297  17.0297  17.0435  17.0435
    17.8610  17.8610  17.8615  17.8615  17.9483

          k = 0.3000 0.5000 0.3536 ( 18500 PWs)   bands (ev):

   -48.9384 -48.9384 -48.9379 -48.9379 -23.2418 -23.2418 -23.2414 -23.2414
   -23.2113 -23.2113 -23.2109 -23.2108 -23.1685 -23.1685 -23.1681 -23.1681
   -22.0873 -22.0873 -22.0873 -22.0873  -6.5793  -6.5793  -6.5713  -6.5713
    -5.8500  -5.8500  -5.8174  -5.8174  -5.6321  -5.6321  -5.6077  -5.6077
    -4.1390  -4.1390  -4.1247  -4.1247  -3.9510  -3.9510  -3.8789  -3.8789
    -3.7632  -3.7632  -3.7569  -3.7569   5.5067   5.5067   5.5094   5.5094
     6.1759   6.1759   6.2081   6.2081   6.6721   6.6721   6.6830   6.6830
     7.1390   7.1390   7.1691   7.1691   7.3680   7.3680   7.3919   7.3919
     8.3485   8.3485   8.4322   8.4322   8.8139   8.8139   8.8391   8.8391
     8.9903   8.9903   9.0163   9.0163   9.6122   9.6122   9.6433   9.6433
    13.3125  13.3125  13.3245  13.3245  14.1854  14.1854  14.1901  14.1901
    14.4008  14.4008  14.4042  14.4042  16.8279  16.8279  16.8352  16.8352
    17.9005  17.9005  17.9098  17.9098  18.0383

          k = 0.3500 0.5000 0.3536 ( 18524 PWs)   bands (ev):

   -48.9384 -48.9384 -48.9379 -48.9379 -23.2456 -23.2456 -23.2452 -23.2452
   -23.2111 -23.2111 -23.2107 -23.2107 -23.1650 -23.1650 -23.1645 -23.1645
   -22.0871 -22.0871 -22.0871 -22.0871  -6.6107  -6.6107  -6.6039  -6.6039
    -5.8546  -5.8546  -5.8299  -5.8299  -5.6029  -5.6029  -5.5855  -5.5855
    -4.1185  -4.1185  -4.1119  -4.1119  -3.9346  -3.9346  -3.8793  -3.8793
    -3.7477  -3.7477  -3.7463  -3.7463   5.3999   5.3999   5.4022   5.4022
     6.1341   6.1341   6.1619   6.1619   6.6606   6.6606   6.6676   6.6676
     7.2194   7.2194   7.2473   7.2473   7.4168   7.4168   7.4336   7.4336
     8.4524   8.4524   8.5763   8.5763   8.7125   8.7125   8.7340   8.7340
     8.9531   8.9531   8.9579   8.9579   9.6150   9.6150   9.6397   9.6397
    13.2692  13.2692  13.2777  13.2777  14.2559  14.2559  14.2604  14.2604
    14.4753  14.4753  14.4804  14.4804  16.6561  16.6561  16.6595  16.6595
    17.9366  17.9366  17.9524  17.9524  18.1400

          k = 0.4000 0.5000 0.3536 ( 18540 PWs)   bands (ev):

   -48.9384 -48.9384 -48.9379 -48.9379 -23.2484 -23.2484 -23.2480 -23.2480
   -23.2110 -23.2110 -23.2106 -23.2106 -23.1624 -23.1624 -23.1620 -23.1620
   -22.0869 -22.0869 -22.0869 -22.0869  -6.6337  -6.6337  -6.6288  -6.6288
    -5.8572  -5.8572  -5.8406  -5.8406  -5.5810  -5.5810  -5.5699  -5.5699
    -4.0997  -4.0997  -4.0980  -4.0980  -3.9251  -3.9251  -3.8880  -3.8880
    -3.7344  -3.7344  -3.7328  -3.7328   5.3216   5.3216   5.3231   5.3231
     6.1028   6.1028   6.1230   6.1230   6.6543   6.6543   6.6585   6.6585
     7.2947   7.2947   7.3196   7.3196   7.4537   7.4537   7.4614   7.4614
     8.4631   8.4631   8.5488   8.5488   8.7141   8.7141   8.7241   8.7241
     8.9245   8.9245   8.9449   8.9449   9.6179   9.6179   9.6350   9.6350
    13.2378  13.2378  13.2433  13.2433  14.3097  14.3097  14.3135  14.3135
    14.5325  14.5325  14.5373  14.5373  16.5250  16.5250  16.5262  16.5262
    17.9681  17.9681  17.9844  17.9844  18.2450

          k = 0.4500 0.5000 0.3536 ( 18540 PWs)   bands (ev):

   -48.9384 -48.9384 -48.9379 -48.9379 -23.2501 -23.2501 -23.2497 -23.2497
   -23.2109 -23.2109 -23.2105 -23.2105 -23.1608 -23.1608 -23.1604 -23.1604
   -22.0867 -22.0867 -22.0867 -22.0867  -6.6474  -6.6474  -6.6448  -6.6448
    -5.8573  -5.8573  -5.8490  -5.8490  -5.5668  -5.5668  -5.5614  -5.5614
    -4.0869  -4.0869  -4.0866  -4.0866  -3.9184  -3.9184  -3.8995  -3.8995
    -3.7247  -3.7247  -3.7230  -3.7230   5.2739   5.2739   5.2747   5.2747
     6.0850   6.0850   6.0956   6.0956   6.6515   6.6515   6.6535   6.6535
     7.3539   7.3539   7.3706   7.3706   7.4765   7.4765   7.4771   7.4771
     8.4274   8.4274   8.4623   8.4623   8.7333   8.7333   8.7595   8.7595
     8.9285   8.9285   8.9504   8.9504   9.6213   9.6213   9.6300   9.6300
    13.2192  13.2192  13.2218  13.2218  14.3438  14.3438  14.3459  14.3459
    14.5690  14.5690  14.5718  14.5718  16.4426  16.4426  16.4430  16.4430
    17.9919  17.9919  18.0021  18.0021  18.3404

          k = 0.5000 0.5000 0.3536 ( 18616 PWs)   bands (ev):

   -48.9384 -48.9384 -48.9379 -48.9379 -23.2507 -23.2507 -23.2503 -23.2503
   -23.2109 -23.2109 -23.2105 -23.2105 -23.1603 -23.1603 -23.1599 -23.1599
   -22.0867 -22.0867 -22.0867 -22.0867  -6.6512  -6.6512  -6.6510  -6.6510
    -5.8547  -5.8547  -5.8546  -5.8546  -5.5604  -5.5604  -5.5601  -5.5601
    -4.0822  -4.0822  -4.0822  -4.0822  -3.9103  -3.9103  -3.9103  -3.9103
    -3.7203  -3.7203  -3.7203  -3.7203   5.2579   5.2579   5.2583   5.2583
     6.0825   6.0825   6.0827   6.0827   6.6512   6.6512   6.6512   6.6512
     7.3829   7.3829   7.3831   7.3831   7.4833   7.4833   7.4833   7.4833
     8.4188   8.4188   8.4191   8.4191   8.7529   8.7529   8.7531   8.7531
     8.9469   8.9469   8.9471   8.9471   9.6252   9.6252   9.6253   9.6253
    13.2136  13.2136  13.2139  13.2139  14.3559  14.3559  14.3563  14.3563
    14.5823  14.5823  14.5826  14.5826  16.4144  16.4144  16.4148  16.4148
    18.0042  18.0042  18.0042  18.0042  18.4005

          k = 0.4500 0.4500 0.3536 ( 18510 PWs)   bands (ev):

   -48.9384 -48.9384 -48.9380 -48.9379 -23.2505 -23.2500 -23.2486 -23.2482
   -23.2111 -23.2108 -23.2107 -23.2104 -23.1623 -23.1619 -23.1604 -23.1599
   -22.0871 -22.0871 -22.0864 -22.0864  -6.6486  -6.6484  -6.6337  -6.6335
    -5.8587  -5.8586  -5.8448  -5.8447  -5.5767  -5.5765  -5.5594  -5.5591
    -4.0986  -4.0986  -4.0833  -4.0833  -3.9185  -3.9185  -3.8964  -3.8964
    -3.7292  -3.7292  -3.7262  -3.7262   5.2579   5.2583   5.3223   5.3226
     6.0877   6.0878   6.1085   6.1086   6.6510   6.6510   6.6565   6.6565
     7.2978   7.2981   7.3837   7.3839   7.4502   7.4503   7.4999   7.4999
     8.4152   8.4154   8.5217   8.5220   8.6930   8.6930   8.7659   8.7661
     8.9249   8.9249   8.9575   8.9577   9.6214   9.6214   9.6301   9.6301
    13.2102  13.2105  13.2443  13.2446  14.3023  14.3027  14.3616  14.3620
    14.5372  14.5375  14.5834  14.5837  16.4098  16.4102  16.5292  16.5296
    17.9554  17.9554  18.0255  18.0255  18.3175

          k = 0.4000 0.4000 0.3536 ( 18500 PWs)   bands (ev):

   -48.9385 -48.9383 -48.9381 -48.9378 -23.2498 -23.2494 -23.2426 -23.2422
   -23.2117 -23.2113 -23.2105 -23.2101 -23.1681 -23.1677 -23.1606 -23.1602
   -22.0883 -22.0883 -22.0858 -22.0858  -6.6421  -6.6419  -6.5831  -6.5829
    -5.8660  -5.8659  -5.8196  -5.8195  -5.6220  -5.6217  -5.5578  -5.5576
    -4.1369  -4.1369  -4.0866  -4.0866  -3.9290  -3.9290  -3.8779  -3.8779
    -3.7537  -3.7537  -3.7445  -3.7445   5.2579   5.2582   5.5082   5.5086
     6.1053   6.1055   6.1799   6.1800   6.6506   6.6506   6.6743   6.6743
     7.1062   7.1065   7.3249   7.3249   7.4205   7.4207   7.5570   7.5571
     8.3961   8.3961   8.4621   8.4621   8.7278   8.7280   8.8110   8.8112
     8.9518   8.9520   8.9953   8.9954   9.6172   9.6172   9.6351   9.6351
    13.2001  13.2003  13.3359  13.3362  14.1411  14.1415  14.3327  14.3331
    14.4570  14.4574  14.5932  14.5936  16.3948  16.3952  16.8435  16.8439
    17.8287  17.8287  18.0841  18.0841  18.1766

          k = 0.3500 0.3500 0.3536 ( 18512 PWs)   bands (ev):

   -48.9387 -48.9382 -48.9381 -48.9377 -23.2488 -23.2484 -23.2333 -23.2329
   -23.2125 -23.2121 -23.2101 -23.2097 -23.1772 -23.1768 -23.1610 -23.1606
   -22.0902 -22.0902 -22.0847 -22.0847  -6.6362  -6.6360  -6.5033  -6.5032
    -5.8754  -5.8753  -5.7802  -5.7801  -5.6883  -5.6880  -5.5561  -5.5558
    -4.1811  -4.1811  -4.0917  -4.0917  -3.9428  -3.9428  -3.8649  -3.8649
    -3.7914  -3.7914  -3.7722  -3.7722   5.2577   5.2581   5.7941   5.7944
     6.1265   6.1266   6.2898   6.2899   6.6493   6.6493   6.7158   6.7158
     6.8968   6.8971   7.1700   7.1701   7.4453   7.4455   7.6471   7.6472
     8.0487   8.0489   8.4320   8.4322   8.7933   8.7934   8.9851   8.9853
     9.0440   9.0443   9.0897   9.0898   9.6080   9.6080   9.6414   9.6415
    13.1831  13.1833  13.4845  13.4848  13.8877  13.8881  14.1483  14.1486
    14.4896  14.4899  14.6152  14.6155  16.3669  16.3672  17.2774  17.2777
    17.6593  17.6593  17.9880  17.9881  18.1462

          k = 0.3000 0.3000 0.3536 ( 18536 PWs)   bands (ev):

   -48.9388 -48.9384 -48.9379 -48.9375 -23.2475 -23.2471 -23.2220 -23.2217
   -23.2131 -23.2127 -23.2095 -23.2091 -23.1886 -23.1881 -23.1615 -23.1610
   -22.0926 -22.0926 -22.0834 -22.0834  -6.6376  -6.6374  -6.4009  -6.4008
    -5.8843  -5.8842  -5.7682  -5.7680  -5.7247  -5.7246  -5.5549  -5.5546
    -4.2208  -4.2208  -4.0981  -4.0981  -3.9600  -3.9600  -3.8637  -3.8637
    -3.8379  -3.8379  -3.8044  -3.8044   5.2575   5.2578   6.1327   6.1328
     6.1417   6.1419   6.4151   6.4151   6.6455   6.6455   6.7182   6.7184
     6.8143   6.8143   6.9493   6.9494   7.4808   7.4810   7.6455   7.6456
     7.7632   7.7633   8.4550   8.4551   8.8231   8.8231   9.0301   9.0303
     9.2030   9.2031   9.2965   9.2968   9.5816   9.5817   9.6618   9.6618
    13.1550  13.1553  13.5564  13.5567  13.6973  13.6976  13.9060  13.9063
    14.5731  14.5734  14.6475  14.6478  16.3218  16.3222  17.4371  17.4371
    17.7374  17.7375  17.7590  17.7592  18.0815

          k = 0.2500 0.2500 0.3536 ( 18550 PWs)   bands (ev):

   -48.9390 -48.9386 -48.9377 -48.9373 -23.2461 -23.2457 -23.2164 -23.2161
   -23.2093 -23.2089 -23.2064 -23.2060 -23.2011 -23.2006 -23.1620 -23.1616
   -22.0953 -22.0953 -22.0819 -22.0819  -6.6532  -6.6530  -6.2840  -6.2839
    -5.8962  -5.8961  -5.8296  -5.8294  -5.6705  -5.6704  -5.5551  -5.5548
    -4.2497  -4.2497  -4.1049  -4.1049  -3.9831  -3.9830  -3.8877  -3.8876
    -3.8772  -3.8771  -3.8324  -3.8324   5.2569   5.2572   6.1101   6.1102
     6.4380   6.4380   6.5580   6.5582   6.5962   6.5964   6.6055   6.6056
     6.6763   6.6763   7.0245   7.0245   7.3159   7.3159   7.5375   7.5377
     7.8937   7.8938   8.4979   8.4980   8.8548   8.8549   9.0916   9.0919
     9.3156   9.3157   9.4661   9.4662   9.5323   9.5324   9.7343   9.7344
    13.0633  13.0633  13.2666  13.2667  13.6624  13.6627  13.9222  13.9225
    14.6627  14.6628  14.7116  14.7118  16.2527  16.2531  17.2351  17.2351
    17.4481  17.4482  17.8396  17.8396  18.0646

          k = 0.2000 0.2000 0.3536 ( 18542 PWs)   bands (ev):

   -48.9392 -48.9388 -48.9375 -48.9371 -23.2447 -23.2443 -23.2173 -23.2169
   -23.2136 -23.2131 -23.2085 -23.2081 -23.1938 -23.1934 -23.1625 -23.1621
   -22.0980 -22.0980 -22.0804 -22.0804  -6.6853  -6.6850  -6.1617  -6.1616
    -5.9318  -5.9315  -5.8475  -5.8474  -5.6177  -5.6175  -5.5568  -5.5565
    -4.2644  -4.2644  -4.1114  -4.1114  -4.0144  -4.0144  -3.9344  -3.9344
    -3.9034  -3.9034  -3.8504  -3.8503   5.2549   5.2553   6.0423   6.0425
     6.2313   6.2316   6.5145   6.5145   6.5691   6.5691   6.6402   6.6402
     6.8496   6.8497   7.1176   7.1177   7.3398   7.3399   7.5821   7.5822
     8.0276   8.0277   8.5514   8.5515   8.9112   8.9113   9.1757   9.1759
     9.3995   9.3995   9.4236   9.4237   9.5581   9.5582   9.8790   9.8793
    12.7522  12.7525  13.1741  13.1743  13.4507  13.4510  14.1683  14.1686
    14.7050  14.7053  14.8495  14.8499  16.1468  16.1472  17.0336  17.0336
    17.1559  17.1559  17.5828  17.5829  17.9085

          k = 0.1500 0.1500 0.3536 ( 18532 PWs)   bands (ev):

   -48.9394 -48.9390 -48.9374 -48.9369 -23.2435 -23.2430 -23.2249 -23.2245
   -23.2183 -23.2179 -23.2080 -23.2075 -23.1818 -23.1814 -23.1630 -23.1625
   -22.1005 -22.1005 -22.0791 -22.0791  -6.7282  -6.7280  -6.0447  -6.0447
    -5.9719  -5.9716  -5.8351  -5.8350  -5.5782  -5.5780  -5.5592  -5.5590
    -4.2644  -4.2644  -4.1166  -4.1166  -4.0515  -4.0515  -3.9724  -3.9724
    -3.9361  -3.9360  -3.8601  -3.8601   5.2493   5.2496   5.8609   5.8612
     5.9587   5.9589   6.5330   6.5331   6.5794   6.5795   6.6290   6.6291
     6.9940   6.9940   7.1400   7.1401   7.6237   7.6239   7.6683   7.6684
     8.1489   8.1490   8.5834   8.5836   9.0267   9.0269   9.2628   9.2629
     9.2830   9.2833   9.5010   9.5011   9.5821   9.5822  10.0240  10.0243
    12.3922  12.3925  13.1470  13.1473  13.2908  13.2911  14.4043  14.4047
    14.7363  14.7366  15.0076  15.0080  15.9869  15.9873  16.8530  16.8530
    16.8981  16.8982  17.2758  17.2760  17.7074

          k = 0.1000 0.1000 0.3536 ( 18540 PWs)   bands (ev):

   -48.9396 -48.9391 -48.9372 -48.9368 -23.2425 -23.2421 -23.2337 -23.2332
   -23.2192 -23.2188 -23.2075 -23.2071 -23.1723 -23.1718 -23.1633 -23.1628
   -22.1025 -22.1025 -22.0781 -22.0781  -6.7708  -6.7705  -6.0103  -6.0100
    -5.9310  -5.9310  -5.8167  -5.8166  -5.5631  -5.5629  -5.5575  -5.5573
    -4.2532  -4.2532  -4.1203  -4.1203  -4.0865  -4.0865  -3.9981  -3.9981
    -3.9704  -3.9703  -3.8643  -3.8643   5.2329   5.2333   5.5743   5.5746
     5.8867   5.8869   6.5463   6.5464   6.5883   6.5884   6.6217   6.6218
     6.9217   6.9217   7.4046   7.4047   7.6568   7.6570   7.9425   7.9426
     8.2435   8.2436   8.5745   8.5747   9.0028   9.0029   9.2874   9.2877
     9.4034   9.4037   9.5617   9.5618   9.5954   9.5955  10.1320  10.1323
    12.0737  12.0741  13.1311  13.1313  13.1885  13.1888  14.6016  14.6019
    14.7599  14.7603  15.1558  15.1561  15.7765  15.7769  16.6795  16.6795
    16.7238  16.7238  17.0369  17.0371  17.5425

          k = 0.0500 0.0500 0.3536 ( 18524 PWs)   bands (ev):

   -48.9397 -48.9392 -48.9371 -48.9367 -23.2422 -23.2417 -23.2391 -23.2386
   -23.2198 -23.2194 -23.2073 -23.2068 -23.1663 -23.1659 -23.1632 -23.1628
   -22.1038 -22.1038 -22.0774 -22.0774  -6.8016  -6.8013  -6.0269  -6.0266
    -5.8513  -5.8513  -5.8038  -5.8038  -5.5654  -5.5652  -5.5566  -5.5564
    -4.2382  -4.2382  -4.1234  -4.1234  -4.1105  -4.1105  -4.0133  -4.0132
    -3.9973  -3.9973  -3.8656  -3.8656   5.1946   5.1950   5.4180   5.4183
     5.8400   5.8403   6.5531   6.5532   6.5873   6.5875   6.6236   6.6237
     6.8842   6.8843   7.6071   7.6072   7.6779   7.6781   8.1681   8.1681
     8.3025   8.3025   8.5337   8.5339   8.7983   8.7985   9.4698   9.4701
     9.5088   9.5091   9.5944   9.5945   9.6039   9.6039  10.1967  10.1970
    11.8474  11.8477  13.1200  13.1203  13.1378  13.1380  14.7272  14.7275
    14.7781  14.7784  15.2632  15.2635  15.5840  15.5844  16.5466  16.5467
    16.6333  16.6333  16.9102  16.9104  17.4244

          k = 0.0000 0.0000 0.3536 ( 18458 PWs)   bands (ev):

   -48.9397 -48.9392 -48.9371 -48.9366 -23.2426 -23.2422 -23.2404 -23.2399
   -23.2200 -23.2196 -23.2072 -23.2067 -23.1648 -23.1644 -23.1627 -23.1622
   -22.1042 -22.1042 -22.0771 -22.0771  -6.8127  -6.8124  -6.0327  -6.0324
    -5.8123  -5.8123  -5.8060  -5.8060  -5.5682  -5.5680  -5.5585  -5.5583
    -4.2309  -4.2309  -4.1263  -4.1263  -4.1173  -4.1173  -4.0203  -4.0203
    -4.0061  -4.0060  -3.8658  -3.8658   5.1669   5.1672   5.3787   5.3790
     5.8240   5.8243   6.5539   6.5540   6.5865   6.5867   6.6258   6.6258
     6.8728   6.8729   7.6846   7.6847   7.6858   7.6859   8.3197   8.3197
     8.3250   8.3250   8.4638   8.4641   8.6889   8.6891   9.5490   9.5493
     9.5578   9.5581   9.5982   9.5983   9.6068   9.6069  10.2181  10.2184
    11.7637  11.7640  13.1131  13.1133  13.1263  13.1266  14.7583  14.7587
    14.7954  14.7957  15.3027  15.3031  15.5065  15.5069  16.5007  16.5008
    16.6028  16.6028  16.8724  16.8727  17.3817

     Writing all to output data dir ./out/smo.save/ :
     XML data file, pseudopotentials, collected wavefunctions

     init_run     :      2.07s CPU      2.50s WALL (       1 calls)
     electrons    :    101.23s CPU    116.40s WALL (       1 calls)

     Called by init_run:
     wfcinit      :      0.00s CPU      0.07s WALL (       1 calls)
     wfcinit:atom :      0.01s CPU      0.03s WALL (       1 calls)
     wfcinit:wfcr :      1.79s CPU      1.81s WALL (       1 calls)
     potinit      :      0.32s CPU      0.49s WALL (       1 calls)
     hinit0       :      1.48s CPU      1.53s WALL (       1 calls)

     Called by electrons:
     c_bands      :    101.23s CPU    112.93s WALL (       1 calls)
     v_of_rho     :      0.18s CPU      0.22s WALL (       1 calls)
     v_h          :      0.08s CPU      0.11s WALL (       1 calls)
     v_xc         :      0.10s CPU      0.11s WALL (       1 calls)
     newd         :      0.08s CPU      0.08s WALL (       1 calls)
     PAW_pot      :      0.04s CPU      0.05s WALL (       1 calls)

     Called by c_bands:
     init_us_2    :      0.05s CPU      0.09s WALL (       1 calls)
     cegterg      :     96.49s CPU     96.75s WALL (       6 calls)

     Called by sum_band:

     Called by *egterg:
     cdiaghg      :      1.73s CPU      1.73s WALL (     121 calls)
     cegterg:over :      9.36s CPU      9.36s WALL (     120 calls)
     cegterg:upda :      5.85s CPU      5.87s WALL (     120 calls)
     cegterg:last :     13.85s CPU     13.88s WALL (      45 calls)
     h_psi        :     59.17s CPU     59.31s WALL (     127 calls)
     s_psi        :      6.78s CPU      6.79s WALL (     127 calls)
     g_psi        :      0.23s CPU      0.23s WALL (     120 calls)

     Called by h_psi:
     h_psi:calbec :      6.27s CPU      6.28s WALL (     127 calls)
     vloc_psi     :     45.91s CPU     45.97s WALL (     127 calls)
                                        0.00s GPU  (     127 calls)
     add_vuspsi   :      6.75s CPU      6.75s WALL (     127 calls)

     General routines
     calbec       :      6.27s CPU      6.28s WALL (     127 calls)
     fft          :      0.16s CPU      0.17s WALL (       6 calls)
     ffts         :      0.01s CPU      0.01s WALL (       1 calls)
     fftw         :     41.72s CPU     41.77s WALL (    9628 calls)
     interpolate  :      0.05s CPU      0.07s WALL (       1 calls)
     davcio       :      0.01s CPU      3.49s WALL (       2 calls)

     Parallel routines

     PAW routines
     PAW_pot      :      0.04s CPU      0.05s WALL (       1 calls)

     PWSCF        :   1m43.77s CPU   2m 3.94s WALL


   This run was terminated on:  20:38:19  29Nov2025            

=------------------------------------------------------------------------------=
   JOB DONE.
=------------------------------------------------------------------------------=
