
             +---------------------------------------------------+
             |                                                   |
             |                   WANNIER90                       |
             |                                                   |
             +---------------------------------------------------+
             |                                                   |
             |        Welcome to the Maximally-Localized         |
             |        Generalized Wannier Functions code         |
             |            http://www.wannier.org                 |
             |                                                   |
             |                                                   |
             |  Wannier90 Developer Group:                       |
             |    Giovanni Pizzi    (Paul Scherrer Institute)    |
             |    Valerio Vitale    (University of Trieste)      |
             |    David Vanderbilt  (Rutgers University)         |
             |    Nicola Marzari    (EPFL)                       |
             |    Ivo Souza         (Universidad del Pais Vasco) |
             |    Arash A. Mostofi  (Imperial College London)    |
             |    Jonathan R. Yates (University of Oxford)       |
             |                                                   |
             |  For the full list of Wannier90 3.x authors,      |
             |  please check the code documentation and the      |
             |  README on the GitHub page of the code            |
             |                                                   |
             |                                                   |
             |  Please cite                                      |
             |                                                   |
             |  [ref] "Wannier90 as a community code:            |
             |        new features and applications",            |
             |        G. Pizzi et al., J. Phys. Cond. Matt. 32,  |
             |        165902 (2020).                             |
             |        http://doi.org/10.1088/1361-648X/ab51ff    |
             |                                                   |
             |  in any publications arising from the use of      |
             |  this code. For the method please cite            |
             |                                                   |
             |  [ref] "Maximally Localized Generalised Wannier   |
             |         Functions for Composite Energy Bands"     |
             |         N. Marzari and D. Vanderbilt              |
             |         Phys. Rev. B 56 12847 (1997)              |
             |                                                   |
             |  [ref] "Maximally Localized Wannier Functions     |
             |         for Entangled Energy Bands"               |
             |         I. Souza, N. Marzari and D. Vanderbilt    |
             |         Phys. Rev. B 65 035109 (2001)             |
             |                                                   |
             |                                                   |
             | Copyright (c) 1996-2020                           |
             |        The Wannier90 Developer Group and          |
             |        individual contributors                    |
             |                                                   |
             |      Release: 3.1.0        5th March    2020      |
             |                                                   |
             | This program is free software; you can            |
             | redistribute it and/or modify it under the terms  |
             | of the GNU General Public License as published by |
             | the Free Software Foundation; either version 2 of |
             | the License, or (at your option) any later version|
             |                                                   |
             | This program is distributed in the hope that it   |
             | will be useful, but WITHOUT ANY WARRANTY; without |
             | even the implied warranty of MERCHANTABILITY or   |
             | FITNESS FOR A PARTICULAR PURPOSE. See the GNU     |
             | General Public License for more details.          |
             |                                                   |
             | You should have received a copy of the GNU General|
             | Public License along with this program; if not,   |
             | write to the Free Software Foundation, Inc.,      |
             | 675 Mass Ave, Cambridge, MA 02139, USA.           |
             |                                                   |
             +---------------------------------------------------+
             |    Execution started on 29Nov2025 at 20:40:51     |
             +---------------------------------------------------+
 
 ******************************************************************************
 * -> Using CODATA 2006 constant values                                       *
 *    (http://physics.nist.gov/cuu/Constants/index.html)                      *
 * -> Using Bohr value from CODATA                                            *
 ******************************************************************************

 Running in parallel on 128 CPUs

                                    ------
                                    SYSTEM
                                    ------

                              Lattice Vectors (Ang)
                    a_1     5.613960   0.000000   0.000000
                    a_2     0.000000   5.613960   0.000000
                    a_3     0.000000   0.000000   7.939340

                   Unit Cell Volume:     250.22058  (Ang^3)

                        Reciprocal-Space Vectors (Ang^-1)
                    b_1     1.119207   0.000000   0.000000
                    b_2     0.000000   1.119207   0.000000
                    b_3     0.000000   0.000000   0.791399
  
 *----------------------------------------------------------------------------*
 |   Site       Fractional Coordinate          Cartesian Coordinate (Ang)     |
 +----------------------------------------------------------------------------+
 | sr   1   0.00000   0.50000   0.25000   |    0.00000   2.80698   1.98483    |
 | sr   2   0.00000   0.50000   0.75000   |    0.00000   2.80698   5.95450    |
 | sr   3   0.50000   0.00000   0.75000   |    2.80698   0.00000   5.95450    |
 | sr   4   0.50000   0.00000   0.25000   |    2.80698   0.00000   1.98483    |
 | mo   1   0.00000   0.00000   0.00000   |    0.00000   0.00000   0.00000    |
 | mo   2   0.00000   0.00000   0.50000   |    0.00000   0.00000   3.96967    |
 | mo   3   0.50000   0.50000   0.50000   |    2.80698   2.80698   3.96967    |
 | mo   4   0.50000   0.50000   0.00000   |    2.80698   2.80698   0.00000    |
 | o    1   0.25000   0.75000  -0.00891   |    1.40349   4.21047  -0.07071    |
 | o    2   0.25000   0.25000   0.00891   |    1.40349   1.40349   0.07071    |
 | o    3   0.75000   0.25000   0.49109   |    4.21047   1.40349   3.89896    |
 | o    4   0.75000   0.75000   0.50891   |    4.21047   4.21047   4.04038    |
 | o    5   0.75000   0.25000   0.00891   |    4.21047   1.40349   0.07071    |
 | o    6   0.75000   0.75000  -0.00891   |    4.21047   4.21047  -0.07071    |
 | o    7   0.25000   0.75000   0.50891   |    1.40349   4.21047   4.04038    |
 | o    8   0.25000   0.25000   0.49109   |    1.40349   1.40349   3.89896    |
 | o    9   0.00000  -0.01781   0.25000   |    0.00000  -0.10000   1.98483    |
 | o   10   0.00000   0.01781   0.75000   |    0.00000   0.10000   5.95450    |
 | o   11   0.50000   0.48219   0.75000   |    2.80698   2.70698   5.95450    |
 | o   12   0.50000   0.51781   0.25000   |    2.80698   2.90698   1.98483    |
 *----------------------------------------------------------------------------*
                                -----------
                                PROJECTIONS
                                -----------
  
 +----------------------------------------------------------------------------+
 |     Frac. Coord.   l mr  r        z-axis               x-axis          Z/a |
 +----------------------------------------------------------------------------+
 |  0.00  0.00  0.00  2  2  1  0.000  0.000  1.000  0.707  0.707  0.000   1.0 |
 |  0.00  0.00  0.00  2  3  1  0.000  0.000  1.000  0.707  0.707  0.000   1.0 |
 |  0.00  0.00  0.00  2  5  1  0.000  0.000  1.000  0.707  0.707  0.000   1.0 |
 |  0.00  0.00  0.50  2  2  1  0.000  0.000  1.000  0.707  0.707  0.000   1.0 |
 |  0.00  0.00  0.50  2  3  1  0.000  0.000  1.000  0.707  0.707  0.000   1.0 |
 |  0.00  0.00  0.50  2  5  1  0.000  0.000  1.000  0.707  0.707  0.000   1.0 |
 |  0.50  0.50  0.50  2  2  1  0.000  0.000  1.000  0.707  0.707  0.000   1.0 |
 |  0.50  0.50  0.50  2  3  1  0.000  0.000  1.000  0.707  0.707  0.000   1.0 |
 |  0.50  0.50  0.50  2  5  1  0.000  0.000  1.000  0.707  0.707  0.000   1.0 |
 |  0.50  0.50  0.00  2  2  1  0.000  0.000  1.000  0.707  0.707  0.000   1.0 |
 |  0.50  0.50  0.00  2  3  1  0.000  0.000  1.000  0.707  0.707  0.000   1.0 |
 |  0.50  0.50  0.00  2  5  1  0.000  0.000  1.000  0.707  0.707  0.000   1.0 |
 |  0.00  0.00  0.00  2  1  1  0.000  0.000  1.000  0.707  0.707  0.000   1.0 |
 |  0.00  0.00  0.00  2  4  1  0.000  0.000  1.000  0.707  0.707  0.000   1.0 |
 |  0.00  0.00  0.50  2  1  1  0.000  0.000  1.000  0.707  0.707  0.000   1.0 |
 |  0.00  0.00  0.50  2  4  1  0.000  0.000  1.000  0.707  0.707  0.000   1.0 |
 |  0.50  0.50  0.50  2  1  1  0.000  0.000  1.000  0.707  0.707  0.000   1.0 |
 |  0.50  0.50  0.50  2  4  1  0.000  0.000  1.000  0.707  0.707  0.000   1.0 |
 |  0.50  0.50  0.00  2  1  1  0.000  0.000  1.000  0.707  0.707  0.000   1.0 |
 |  0.50  0.50  0.00  2  4  1  0.000  0.000  1.000  0.707  0.707  0.000   1.0 |
 |  0.25  0.75 -0.01  1  1  1  0.000  0.000  1.000  1.000  0.000  0.000   1.0 |
 |  0.25  0.75 -0.01  1  2  1  0.000  0.000  1.000  1.000  0.000  0.000   1.0 |
 |  0.25  0.75 -0.01  1  3  1  0.000  0.000  1.000  1.000  0.000  0.000   1.0 |
 |  0.25  0.25  0.01  1  1  1  0.000  0.000  1.000  1.000  0.000  0.000   1.0 |
 |  0.25  0.25  0.01  1  2  1  0.000  0.000  1.000  1.000  0.000  0.000   1.0 |
 |  0.25  0.25  0.01  1  3  1  0.000  0.000  1.000  1.000  0.000  0.000   1.0 |
 |  0.75  0.25  0.49  1  1  1  0.000  0.000  1.000  1.000  0.000  0.000   1.0 |
 |  0.75  0.25  0.49  1  2  1  0.000  0.000  1.000  1.000  0.000  0.000   1.0 |
 |  0.75  0.25  0.49  1  3  1  0.000  0.000  1.000  1.000  0.000  0.000   1.0 |
 |  0.75  0.75  0.51  1  1  1  0.000  0.000  1.000  1.000  0.000  0.000   1.0 |
 |  0.75  0.75  0.51  1  2  1  0.000  0.000  1.000  1.000  0.000  0.000   1.0 |
 |  0.75  0.75  0.51  1  3  1  0.000  0.000  1.000  1.000  0.000  0.000   1.0 |
 |  0.75  0.25  0.01  1  1  1  0.000  0.000  1.000  1.000  0.000  0.000   1.0 |
 |  0.75  0.25  0.01  1  2  1  0.000  0.000  1.000  1.000  0.000  0.000   1.0 |
 |  0.75  0.25  0.01  1  3  1  0.000  0.000  1.000  1.000  0.000  0.000   1.0 |
 |  0.75  0.75 -0.01  1  1  1  0.000  0.000  1.000  1.000  0.000  0.000   1.0 |
 |  0.75  0.75 -0.01  1  2  1  0.000  0.000  1.000  1.000  0.000  0.000   1.0 |
 |  0.75  0.75 -0.01  1  3  1  0.000  0.000  1.000  1.000  0.000  0.000   1.0 |
 |  0.25  0.75  0.51  1  1  1  0.000  0.000  1.000  1.000  0.000  0.000   1.0 |
 |  0.25  0.75  0.51  1  2  1  0.000  0.000  1.000  1.000  0.000  0.000   1.0 |
 |  0.25  0.75  0.51  1  3  1  0.000  0.000  1.000  1.000  0.000  0.000   1.0 |
 |  0.25  0.25  0.49  1  1  1  0.000  0.000  1.000  1.000  0.000  0.000   1.0 |
 |  0.25  0.25  0.49  1  2  1  0.000  0.000  1.000  1.000  0.000  0.000   1.0 |
 |  0.25  0.25  0.49  1  3  1  0.000  0.000  1.000  1.000  0.000  0.000   1.0 |
 |  0.00 -0.02  0.25  1  1  1  0.000  0.000  1.000  1.000  0.000  0.000   1.0 |
 |  0.00 -0.02  0.25  1  2  1  0.000  0.000  1.000  1.000  0.000  0.000   1.0 |
 |  0.00 -0.02  0.25  1  3  1  0.000  0.000  1.000  1.000  0.000  0.000   1.0 |
 |  0.00  0.02  0.75  1  1  1  0.000  0.000  1.000  1.000  0.000  0.000   1.0 |
 |  0.00  0.02  0.75  1  2  1  0.000  0.000  1.000  1.000  0.000  0.000   1.0 |
 |  0.00  0.02  0.75  1  3  1  0.000  0.000  1.000  1.000  0.000  0.000   1.0 |
 |  0.50  0.48  0.75  1  1  1  0.000  0.000  1.000  1.000  0.000  0.000   1.0 |
 |  0.50  0.48  0.75  1  2  1  0.000  0.000  1.000  1.000  0.000  0.000   1.0 |
 |  0.50  0.48  0.75  1  3  1  0.000  0.000  1.000  1.000  0.000  0.000   1.0 |
 |  0.50  0.52  0.25  1  1  1  0.000  0.000  1.000  1.000  0.000  0.000   1.0 |
 |  0.50  0.52  0.25  1  2  1  0.000  0.000  1.000  1.000  0.000  0.000   1.0 |
 |  0.50  0.52  0.25  1  3  1  0.000  0.000  1.000  1.000  0.000  0.000   1.0 |
 +----------------------------------------------------------------------------+
  
                                ------------
                                K-POINT GRID
                                ------------
  
             Grid size =  5 x  5 x  5      Total points =  125
  
 *----------------------------------------------------------------------------*
 | k-point      Fractional Coordinate        Cartesian Coordinate (Ang^-1)    |
 +----------------------------------------------------------------------------+
 |     1    0.00000   0.00000   0.00000   |    0.00000   0.00000   0.00000    |
 |     2    0.00000   0.00000   0.20000   |    0.00000   0.00000   0.15828    |
 |     3    0.00000   0.00000   0.40000   |    0.00000   0.00000   0.31656    |
 |     4    0.00000   0.00000   0.60000   |    0.00000   0.00000   0.47484    |
 |     5    0.00000   0.00000   0.80000   |    0.00000   0.00000   0.63312    |
 |     6    0.00000   0.20000   0.00000   |    0.00000   0.22384   0.00000    |
 |     7    0.00000   0.20000   0.20000   |    0.00000   0.22384   0.15828    |
 |     8    0.00000   0.20000   0.40000   |    0.00000   0.22384   0.31656    |
 |     9    0.00000   0.20000   0.60000   |    0.00000   0.22384   0.47484    |
 |    10    0.00000   0.20000   0.80000   |    0.00000   0.22384   0.63312    |
 |    11    0.00000   0.40000   0.00000   |    0.00000   0.44768   0.00000    |
 |    12    0.00000   0.40000   0.20000   |    0.00000   0.44768   0.15828    |
 |    13    0.00000   0.40000   0.40000   |    0.00000   0.44768   0.31656    |
 |    14    0.00000   0.40000   0.60000   |    0.00000   0.44768   0.47484    |
 |    15    0.00000   0.40000   0.80000   |    0.00000   0.44768   0.63312    |
 |    16    0.00000   0.60000   0.00000   |    0.00000   0.67152   0.00000    |
 |    17    0.00000   0.60000   0.20000   |    0.00000   0.67152   0.15828    |
 |    18    0.00000   0.60000   0.40000   |    0.00000   0.67152   0.31656    |
 |    19    0.00000   0.60000   0.60000   |    0.00000   0.67152   0.47484    |
 |    20    0.00000   0.60000   0.80000   |    0.00000   0.67152   0.63312    |
 |    21    0.00000   0.80000   0.00000   |    0.00000   0.89537   0.00000    |
 |    22    0.00000   0.80000   0.20000   |    0.00000   0.89537   0.15828    |
 |    23    0.00000   0.80000   0.40000   |    0.00000   0.89537   0.31656    |
 |    24    0.00000   0.80000   0.60000   |    0.00000   0.89537   0.47484    |
 |    25    0.00000   0.80000   0.80000   |    0.00000   0.89537   0.63312    |
 |    26    0.20000   0.00000   0.00000   |    0.22384   0.00000   0.00000    |
 |    27    0.20000   0.00000   0.20000   |    0.22384   0.00000   0.15828    |
 |    28    0.20000   0.00000   0.40000   |    0.22384   0.00000   0.31656    |
 |    29    0.20000   0.00000   0.60000   |    0.22384   0.00000   0.47484    |
 |    30    0.20000   0.00000   0.80000   |    0.22384   0.00000   0.63312    |
 |    31    0.20000   0.20000   0.00000   |    0.22384   0.22384   0.00000    |
 |    32    0.20000   0.20000   0.20000   |    0.22384   0.22384   0.15828    |
 |    33    0.20000   0.20000   0.40000   |    0.22384   0.22384   0.31656    |
 |    34    0.20000   0.20000   0.60000   |    0.22384   0.22384   0.47484    |
 |    35    0.20000   0.20000   0.80000   |    0.22384   0.22384   0.63312    |
 |    36    0.20000   0.40000   0.00000   |    0.22384   0.44768   0.00000    |
 |    37    0.20000   0.40000   0.20000   |    0.22384   0.44768   0.15828    |
 |    38    0.20000   0.40000   0.40000   |    0.22384   0.44768   0.31656    |
 |    39    0.20000   0.40000   0.60000   |    0.22384   0.44768   0.47484    |
 |    40    0.20000   0.40000   0.80000   |    0.22384   0.44768   0.63312    |
 |    41    0.20000   0.60000   0.00000   |    0.22384   0.67152   0.00000    |
 |    42    0.20000   0.60000   0.20000   |    0.22384   0.67152   0.15828    |
 |    43    0.20000   0.60000   0.40000   |    0.22384   0.67152   0.31656    |
 |    44    0.20000   0.60000   0.60000   |    0.22384   0.67152   0.47484    |
 |    45    0.20000   0.60000   0.80000   |    0.22384   0.67152   0.63312    |
 |    46    0.20000   0.80000   0.00000   |    0.22384   0.89537   0.00000    |
 |    47    0.20000   0.80000   0.20000   |    0.22384   0.89537   0.15828    |
 |    48    0.20000   0.80000   0.40000   |    0.22384   0.89537   0.31656    |
 |    49    0.20000   0.80000   0.60000   |    0.22384   0.89537   0.47484    |
 |    50    0.20000   0.80000   0.80000   |    0.22384   0.89537   0.63312    |
 |    51    0.40000   0.00000   0.00000   |    0.44768   0.00000   0.00000    |
 |    52    0.40000   0.00000   0.20000   |    0.44768   0.00000   0.15828    |
 |    53    0.40000   0.00000   0.40000   |    0.44768   0.00000   0.31656    |
 |    54    0.40000   0.00000   0.60000   |    0.44768   0.00000   0.47484    |
 |    55    0.40000   0.00000   0.80000   |    0.44768   0.00000   0.63312    |
 |    56    0.40000   0.20000   0.00000   |    0.44768   0.22384   0.00000    |
 |    57    0.40000   0.20000   0.20000   |    0.44768   0.22384   0.15828    |
 |    58    0.40000   0.20000   0.40000   |    0.44768   0.22384   0.31656    |
 |    59    0.40000   0.20000   0.60000   |    0.44768   0.22384   0.47484    |
 |    60    0.40000   0.20000   0.80000   |    0.44768   0.22384   0.63312    |
 |    61    0.40000   0.40000   0.00000   |    0.44768   0.44768   0.00000    |
 |    62    0.40000   0.40000   0.20000   |    0.44768   0.44768   0.15828    |
 |    63    0.40000   0.40000   0.40000   |    0.44768   0.44768   0.31656    |
 |    64    0.40000   0.40000   0.60000   |    0.44768   0.44768   0.47484    |
 |    65    0.40000   0.40000   0.80000   |    0.44768   0.44768   0.63312    |
 |    66    0.40000   0.60000   0.00000   |    0.44768   0.67152   0.00000    |
 |    67    0.40000   0.60000   0.20000   |    0.44768   0.67152   0.15828    |
 |    68    0.40000   0.60000   0.40000   |    0.44768   0.67152   0.31656    |
 |    69    0.40000   0.60000   0.60000   |    0.44768   0.67152   0.47484    |
 |    70    0.40000   0.60000   0.80000   |    0.44768   0.67152   0.63312    |
 |    71    0.40000   0.80000   0.00000   |    0.44768   0.89537   0.00000    |
 |    72    0.40000   0.80000   0.20000   |    0.44768   0.89537   0.15828    |
 |    73    0.40000   0.80000   0.40000   |    0.44768   0.89537   0.31656    |
 |    74    0.40000   0.80000   0.60000   |    0.44768   0.89537   0.47484    |
 |    75    0.40000   0.80000   0.80000   |    0.44768   0.89537   0.63312    |
 |    76    0.60000   0.00000   0.00000   |    0.67152   0.00000   0.00000    |
 |    77    0.60000   0.00000   0.20000   |    0.67152   0.00000   0.15828    |
 |    78    0.60000   0.00000   0.40000   |    0.67152   0.00000   0.31656    |
 |    79    0.60000   0.00000   0.60000   |    0.67152   0.00000   0.47484    |
 |    80    0.60000   0.00000   0.80000   |    0.67152   0.00000   0.63312    |
 |    81    0.60000   0.20000   0.00000   |    0.67152   0.22384   0.00000    |
 |    82    0.60000   0.20000   0.20000   |    0.67152   0.22384   0.15828    |
 |    83    0.60000   0.20000   0.40000   |    0.67152   0.22384   0.31656    |
 |    84    0.60000   0.20000   0.60000   |    0.67152   0.22384   0.47484    |
 |    85    0.60000   0.20000   0.80000   |    0.67152   0.22384   0.63312    |
 |    86    0.60000   0.40000   0.00000   |    0.67152   0.44768   0.00000    |
 |    87    0.60000   0.40000   0.20000   |    0.67152   0.44768   0.15828    |
 |    88    0.60000   0.40000   0.40000   |    0.67152   0.44768   0.31656    |
 |    89    0.60000   0.40000   0.60000   |    0.67152   0.44768   0.47484    |
 |    90    0.60000   0.40000   0.80000   |    0.67152   0.44768   0.63312    |
 |    91    0.60000   0.60000   0.00000   |    0.67152   0.67152   0.00000    |
 |    92    0.60000   0.60000   0.20000   |    0.67152   0.67152   0.15828    |
 |    93    0.60000   0.60000   0.40000   |    0.67152   0.67152   0.31656    |
 |    94    0.60000   0.60000   0.60000   |    0.67152   0.67152   0.47484    |
 |    95    0.60000   0.60000   0.80000   |    0.67152   0.67152   0.63312    |
 |    96    0.60000   0.80000   0.00000   |    0.67152   0.89537   0.00000    |
 |    97    0.60000   0.80000   0.20000   |    0.67152   0.89537   0.15828    |
 |    98    0.60000   0.80000   0.40000   |    0.67152   0.89537   0.31656    |
 |    99    0.60000   0.80000   0.60000   |    0.67152   0.89537   0.47484    |
 |   100    0.60000   0.80000   0.80000   |    0.67152   0.89537   0.63312    |
 |   101    0.80000   0.00000   0.00000   |    0.89537   0.00000   0.00000    |
 |   102    0.80000   0.00000   0.20000   |    0.89537   0.00000   0.15828    |
 |   103    0.80000   0.00000   0.40000   |    0.89537   0.00000   0.31656    |
 |   104    0.80000   0.00000   0.60000   |    0.89537   0.00000   0.47484    |
 |   105    0.80000   0.00000   0.80000   |    0.89537   0.00000   0.63312    |
 |   106    0.80000   0.20000   0.00000   |    0.89537   0.22384   0.00000    |
 |   107    0.80000   0.20000   0.20000   |    0.89537   0.22384   0.15828    |
 |   108    0.80000   0.20000   0.40000   |    0.89537   0.22384   0.31656    |
 |   109    0.80000   0.20000   0.60000   |    0.89537   0.22384   0.47484    |
 |   110    0.80000   0.20000   0.80000   |    0.89537   0.22384   0.63312    |
 |   111    0.80000   0.40000   0.00000   |    0.89537   0.44768   0.00000    |
 |   112    0.80000   0.40000   0.20000   |    0.89537   0.44768   0.15828    |
 |   113    0.80000   0.40000   0.40000   |    0.89537   0.44768   0.31656    |
 |   114    0.80000   0.40000   0.60000   |    0.89537   0.44768   0.47484    |
 |   115    0.80000   0.40000   0.80000   |    0.89537   0.44768   0.63312    |
 |   116    0.80000   0.60000   0.00000   |    0.89537   0.67152   0.00000    |
 |   117    0.80000   0.60000   0.20000   |    0.89537   0.67152   0.15828    |
 |   118    0.80000   0.60000   0.40000   |    0.89537   0.67152   0.31656    |
 |   119    0.80000   0.60000   0.60000   |    0.89537   0.67152   0.47484    |
 |   120    0.80000   0.60000   0.80000   |    0.89537   0.67152   0.63312    |
 |   121    0.80000   0.80000   0.00000   |    0.89537   0.89537   0.00000    |
 |   122    0.80000   0.80000   0.20000   |    0.89537   0.89537   0.15828    |
 |   123    0.80000   0.80000   0.40000   |    0.89537   0.89537   0.31656    |
 |   124    0.80000   0.80000   0.60000   |    0.89537   0.89537   0.47484    |
 |   125    0.80000   0.80000   0.80000   |    0.89537   0.89537   0.63312    |
 *----------------------------------------------------------------------------*
  
  
 *---------------------------------- MAIN ------------------------------------*
 |  Number of Wannier Functions               :                56             |
 |  Number of Objective Wannier Functions     :                56             |
 |  Number of input Bloch states              :                56             |
 |  Output verbosity (1=low, 5=high)          :                 2             |
 |  Timing Level (1=low, 5=high)              :                 1             |
 |  Optimisation (0=memory, 3=speed)          :                 3             |
 |  Length Unit                               :               Ang             |
 |  Post-processing setup (write *.nnkp)      :                 F             |
 |  Using Gamma-only branch of algorithms     :                 F             |
 *----------------------------------------------------------------------------*
 *------------------------------- WANNIERISE ---------------------------------*
 |  Total number of iterations                :             10000             |
 |  Number of CG steps before reset           :                 5             |
 |  Trial step length for line search         :             2.000             |
 |  Convergence tolerence                     :         0.100E-11             |
 |  Convergence window                        :                 5             |
 |  Iterations between writing output         :               200             |
 |  Iterations between backing up to disk     :               100             |
 |  Write r^2_nm to file                      :                 F             |
 |  Write xyz WF centres to file              :                 F             |
 |  Write on-site energies <0n|H|0n> to file  :                 F             |
 |  Use guiding centre to control phases      :                 F             |
 |  Use phases for initial projections        :                 F             |
 *----------------------------------------------------------------------------*
 *-------------------------------- PLOTTING ----------------------------------*
 |  Plotting interpolated bandstructure       :                 T             |
 |   Number of K-path sections                :                 7             |
 |   Divisions along first K-path section     :               100             |
 |   Output format                            :           gnuplot             |
 |   Output mode                              :               s-k             |
 *----------------------------------------------------------------------------*
 |   K-space path sections:                                                   |
 |    From: G       0.000  0.000  0.000     To: X       0.000  0.500  0.000   |
 |    From: X       0.000  0.500  0.000     To: M       0.500  0.500  0.000   |
 |    From: M       0.500  0.500  0.000     To: G       0.000  0.000  0.000   |
 |    From: G       0.000  0.000  0.000     To: Z       0.000  0.000  0.500   |
 |    From: Z       0.000  0.000  0.500     To: R       0.000  0.500  0.500   |
 |    From: R       0.000  0.500  0.500     To: A       0.500  0.500  0.500   |
 |    From: A       0.500  0.500  0.500     To: Z       0.000  0.000  0.500   |
 *----------------------------------------------------------------------------*
 |  Plotting Hamiltonian in WF basis          :                 T             |
 *----------------------------------------------------------------------------*

 *---------------------------------- K-MESH ----------------------------------*
 +----------------------------------------------------------------------------+
 |                    Distance to Nearest-Neighbour Shells                    |
 |                    ------------------------------------                    |
 |          Shell             Distance (Ang^-1)          Multiplicity         |
 |          -----             -----------------          ------------         |
 |             1                   0.158280                      2            |
 |             2                   0.223841                      4            |
 |             3                   0.274149                      8            |
 |             4                   0.316560                      6            |
 |             5                   0.353924                      8            |
 |             6                   0.387705                      8            |
 |             7                   0.447683                     12            |
 |             8                   0.474839                     10            |
 |             9                   0.500525                      8            |
 |            10                   0.524955                     24            |
 |            11                   0.548297                      8            |
 |            12                   0.570686                      8            |
 |            13                   0.592229                     16            |
 |            14                   0.633119                      6            |
 |            15                   0.652604                     16            |
 |            16                   0.671524                     12            |
 |            17                   0.689926                     24            |
 |            18                   0.707849                     24            |
 |            19                   0.725329                     16            |
 |            20                   0.742398                      8            |
 |            21                   0.775409                     24            |
 |            22                   0.791399                     10            |
 |            23                   0.807072                     24            |
 |            24                   0.822446                     32            |
 |            25                   0.852363                     24            |
 |            26                   0.866934                     16            |
 |            27                   0.895366                     12            |
 |            28                   0.909248                     16            |
 |            29                   0.922922                     16            |
 |            30                   0.936396                     48            |
 |            31                   0.949679                     30            |
 |            32                   0.962779                      8            |
 |            33                   0.975702                     24            |
 |            34                   1.001049                     24            |
 |            35                   1.013485                     32            |
 |            36                   1.025770                     16            |
 +----------------------------------------------------------------------------+
 | The b-vectors are chosen automatically                                     |
 | Shell:  1 w_b   19.9580947      (Ang^2)                                    |
 | Shell:  1 w_b   19.9580947      (Ang^2)                                    |
 | Shell:  2 w_b    9.9790432      (Ang^2)                                    |
 | The following shells are used:   1,  2                 |
 +----------------------------------------------------------------------------+
 |                        Shell   # Nearest-Neighbours                        |
 |                        -----   --------------------                        |
 |                          1               2                                 |
 |                          2               4                                 |
 +----------------------------------------------------------------------------+
 | Completeness relation is fully satisfied [Eq. (B1), PRB 56, 12847 (1997)]  |
 +----------------------------------------------------------------------------+
 |                  b_k Vectors (Ang^-1) and Weights (Ang^2)                  |
 |                  ----------------------------------------                  |
 |            No.         b_k(x)      b_k(y)      b_k(z)        w_b           |
 |            ---        --------------------------------     --------        |
 |             1         0.000000    0.000000    0.158280    19.958095        |
 |             2         0.000000    0.000000   -0.158280    19.958095        |
 |             3         0.000000    0.223841    0.000000     9.979043        |
 |             4         0.223841    0.000000    0.000000     9.979043        |
 |             5         0.000000   -0.223841    0.000000     9.979043        |
 |             6        -0.223841    0.000000    0.000000     9.979043        |
 +----------------------------------------------------------------------------+
 |                           b_k Directions (Ang^-1)                          |
 |                           -----------------------                          |
 |            No.           x           y           z                         |
 |            ---        --------------------------------                     |
 |             1         0.000000    0.000000    0.158280                     |
 |             2         0.000000    0.223841    0.000000                     |
 |             3         0.223841    0.000000    0.000000                     |
 +----------------------------------------------------------------------------+
  
 Starting a new Wannier90 calculation ...


 Reading overlaps from smo.mmn    :  Created on 29Nov2025 at 20:40:20

 Reading projections from smo.amn :  Created on 29Nov2025 at 20:40: 2

 *------------------------------- WANNIERISE ---------------------------------*
 +--------------------------------------------------------------------+<-- CONV
 | Iter  Delta Spread     RMS Gradient      Spread (Ang^2)      Time  |<-- CONV
 +--------------------------------------------------------------------+<-- CONV

 ------------------------------------------------------------------------------
 Initial State
  WF centre and spread    1  ( -0.000156,  0.000227,  0.000216 )     1.84664179
  WF centre and spread    2  (  0.000009,  0.000183,  0.000353 )     1.84392166
  WF centre and spread    3  (  0.000015,  0.000007,  0.000001 )     1.47038242
  WF centre and spread    4  (  0.000244, -0.000102,  3.969971 )     1.83294155
  WF centre and spread    5  ( -0.000083,  0.000172,  3.970169 )     1.82712510
  WF centre and spread    6  ( -0.000029, -0.000013,  3.969670 )     1.46493845
  WF centre and spread    7  (  2.807047,  2.807091,  3.969887 )     1.83010631
  WF centre and spread    8  (  2.806839,  2.807070,  3.969486 )     1.82678722
  WF centre and spread    9  (  2.806988,  2.807003,  3.969684 )     1.46570520
  WF centre and spread   10  (  2.806798,  2.807239, -0.000430 )     1.84341969
  WF centre and spread   11  (  2.807075,  2.806948, -0.000469 )     1.84850808
  WF centre and spread   12  (  2.806985,  2.806965, -0.000013 )     1.46974702
  WF centre and spread   13  (  0.007480,  0.027880,  0.022270 )    41.10044035
  WF centre and spread   14  (  0.001210,  0.081350, -0.032054 )    40.00166344
  WF centre and spread   15  ( -0.009625, -0.003502,  4.088836 )    39.88843136
  WF centre and spread   16  ( -0.050953,  0.000055,  4.094048 )    39.19261424
  WF centre and spread   17  (  2.801736,  2.828056,  3.888307 )    40.55342714
  WF centre and spread   18  (  2.819807,  2.821964,  4.126077 )    38.87431747
  WF centre and spread   19  (  2.783982,  2.816441, -0.085386 )    40.87010664
  WF centre and spread   20  (  2.776321,  2.852094, -0.006122 )    40.03064076
  WF centre and spread   21  (  1.403492,  4.210466, -0.082537 )     1.17810778
  WF centre and spread   22  (  1.405100,  4.216334, -0.081712 )     7.32202462
  WF centre and spread   23  (  1.403306,  4.216705, -0.069848 )     7.34173896
  WF centre and spread   24  (  1.403471,  1.403507,  0.082558 )     1.17749367
  WF centre and spread   25  (  1.400394,  1.412554,  0.082225 )     7.29230922
  WF centre and spread   26  (  1.401491,  1.411117,  0.070832 )     7.25152046
  WF centre and spread   27  (  4.210466,  1.403482,  3.887936 )     1.18074757
  WF centre and spread   28  (  4.207421,  1.404984,  3.900725 )     7.04398769
  WF centre and spread   29  (  4.207583,  1.405562,  3.909917 )     7.08343178
  WF centre and spread   30  (  4.210461,  4.210481,  4.051492 )     1.18053840
  WF centre and spread   31  (  4.210991,  4.209204,  4.063691 )     7.15578308
  WF centre and spread   32  (  4.210756,  4.209750,  4.055562 )     7.15913568
  WF centre and spread   33  (  4.210495,  1.403508,  0.082667 )     1.18034234
  WF centre and spread   34  (  4.212734,  1.403582,  0.067277 )     7.35170510
  WF centre and spread   35  (  4.213266,  1.403910,  0.057271 )     7.38185795
  WF centre and spread   36  (  4.210475,  4.210465, -0.082591 )     1.17984748
  WF centre and spread   37  (  4.208156,  4.217718, -0.073876 )     7.37665866
  WF centre and spread   38  (  4.207324,  4.219120, -0.064383 )     7.36494727
  WF centre and spread   39  (  1.403490,  4.210479,  4.051452 )     1.18358503
  WF centre and spread   40  (  1.402831,  4.213503,  4.060464 )     7.05971075
  WF centre and spread   41  (  1.402484,  4.213435,  4.053953 )     7.13024660
  WF centre and spread   42  (  1.403484,  1.403489,  3.887866 )     1.18274329
  WF centre and spread   43  (  1.406180,  1.402553,  3.899132 )     7.20475706
  WF centre and spread   44  (  1.409157,  1.401216,  3.905612 )     7.19642680
  WF centre and spread   45  (  0.003900, -0.121724,  1.979719 )    12.95874267
  WF centre and spread   46  ( -0.000003, -0.099641,  1.984867 )     1.13744536
  WF centre and spread   47  (  0.000046, -0.123341,  1.984834 )     1.15307811
  WF centre and spread   48  ( -0.001627,  0.129223,  5.982214 )    12.96924299
  WF centre and spread   49  ( -0.000043,  0.099530,  5.954489 )     1.13735198
  WF centre and spread   50  (  0.000006,  0.123537,  5.954586 )     1.15149647
  WF centre and spread   51  (  2.803349,  2.680670,  5.963846 )    12.99085072
  WF centre and spread   52  (  2.806981,  2.707427,  5.954505 )     1.13701026
  WF centre and spread   53  (  2.806974,  2.683573,  5.954604 )     1.15243442
  WF centre and spread   54  (  2.809625,  2.943577,  1.941907 )    13.00314518
  WF centre and spread   55  (  2.806988,  2.906587,  1.984848 )     1.13731419
  WF centre and spread   56  (  2.806897,  2.930289,  1.984782 )     1.15324520
  Sum of centres and spreads (112.179792,112.543956,135.255386 )   527.32287067

      0     0.527E+03     0.0000000000      527.3228706657       0.00  <-- CONV
        O_D=      7.3774208 O_OD=    358.6092897 O_TOT=    527.3228707 <-- SPRD
 ------------------------------------------------------------------------------
 Cycle:      1
  WF centre and spread    1  ( -0.000136,  0.000198,  0.000203 )     1.71371907
  WF centre and spread    2  (  0.000104,  0.000206,  0.000370 )     1.71137440
  WF centre and spread    3  (  0.000084,  0.000029,  0.000034 )     1.42853760
  WF centre and spread    4  (  0.000330,  0.000030,  3.969901 )     1.70024698
  WF centre and spread    5  ( -0.000111,  0.000165,  3.970362 )     1.69853768
  WF centre and spread    6  (  0.000001,  0.000027,  3.969674 )     1.41394539
  WF centre and spread    7  (  2.807160,  2.807205,  3.969861 )     1.70570228
  WF centre and spread    8  (  2.806876,  2.807031,  3.969683 )     1.70080453
  WF centre and spread    9  (  2.806924,  2.806966,  3.969705 )     1.41402745
  WF centre and spread   10  (  2.806872,  2.807193, -0.000345 )     1.70887162
  WF centre and spread   11  (  2.807041,  2.806963, -0.000388 )     1.71306725
  WF centre and spread   12  (  2.806978,  2.806918,  0.000019 )     1.42698094
  WF centre and spread   13  (  0.019673,  0.047432,  0.061052 )    40.44128790
  WF centre and spread   14  ( -0.000071,  0.073361, -0.018424 )    39.45617267
  WF centre and spread   15  ( -0.014178,  0.036411,  4.043084 )    38.33365814
  WF centre and spread   16  ( -0.013360, -0.019588,  4.143823 )    37.83328351
  WF centre and spread   17  (  2.799004,  2.843823,  3.913760 )    38.80211876
  WF centre and spread   18  (  2.832917,  2.834684,  4.189755 )    37.38034713
  WF centre and spread   19  (  2.790352,  2.805730, -0.044060 )    40.25932734
  WF centre and spread   20  (  2.832309,  2.870561,  0.000694 )    39.65512246
  WF centre and spread   21  (  1.403434,  4.210513, -0.083358 )     1.13587707
  WF centre and spread   22  (  1.405882,  4.215150, -0.082421 )     5.89199258
  WF centre and spread   23  (  1.403572,  4.215858, -0.070254 )     5.94928752
  WF centre and spread   24  (  1.403488,  1.403518,  0.083471 )     1.13613481
  WF centre and spread   25  (  1.401357,  1.410150,  0.082546 )     5.92481472
  WF centre and spread   26  (  1.402630,  1.407962,  0.071873 )     5.90107124
  WF centre and spread   27  (  4.210471,  1.403464,  3.887260 )     1.13380590
  WF centre and spread   28  (  4.207390,  1.404347,  3.902713 )     5.58043844
  WF centre and spread   29  (  4.207508,  1.404648,  3.912781 )     5.62601773
  WF centre and spread   30  (  4.210423,  4.210419,  4.052079 )     1.13585441
  WF centre and spread   31  (  4.212803,  4.210896,  4.066308 )     5.64728638
  WF centre and spread   32  (  4.212379,  4.211679,  4.057341 )     5.67028980
  WF centre and spread   33  (  4.210520,  1.403485,  0.083699 )     1.13782945
  WF centre and spread   34  (  4.212376,  1.403721,  0.068753 )     5.96382827
  WF centre and spread   35  (  4.212620,  1.403528,  0.058914 )     6.02401074
  WF centre and spread   36  (  4.210474,  4.210442, -0.083539 )     1.13608739
  WF centre and spread   37  (  4.209031,  4.215911, -0.076255 )     5.93801401
  WF centre and spread   38  (  4.207268,  4.218824, -0.066756 )     5.95521603
  WF centre and spread   39  (  1.403430,  4.210492,  4.051987 )     1.13610986
  WF centre and spread   40  (  1.403095,  4.212786,  4.065046 )     5.55125850
  WF centre and spread   41  (  1.402774,  4.212455,  4.056546 )     5.64173640
  WF centre and spread   42  (  1.403506,  1.403539,  3.887191 )     1.13696494
  WF centre and spread   43  (  1.408019,  1.403281,  3.899337 )     5.71479081
  WF centre and spread   44  (  1.411940,  1.400943,  3.907821 )     5.70430267
  WF centre and spread   45  (  0.005352, -0.115710,  1.980117 )    10.58390132
  WF centre and spread   46  (  0.000034, -0.100174,  1.984960 )     1.09906008
  WF centre and spread   47  (  0.000064, -0.123928,  1.984869 )     1.11320343
  WF centre and spread   48  ( -0.004321,  0.129433,  5.980321 )    10.54171686
  WF centre and spread   49  ( -0.000035,  0.100092,  5.954446 )     1.09913080
  WF centre and spread   50  (  0.000035,  0.124261,  5.954519 )     1.11086084
  WF centre and spread   51  (  2.804136,  2.681034,  5.973086 )    10.73619774
  WF centre and spread   52  (  2.807027,  2.706909,  5.954500 )     1.09932582
  WF centre and spread   53  (  2.806971,  2.682937,  5.954552 )     1.11096304
  WF centre and spread   54  (  2.811125,  2.942818,  1.943668 )    10.68920091
  WF centre and spread   55  (  2.806997,  2.907099,  1.984907 )     1.09948484
  WF centre and spread   56  (  2.806878,  2.930890,  1.984815 )     1.11280187
  Sum of centres and spreads (112.309421,112.609019,135.476607 )   484.66600030

      1    -0.427E+02    12.5548321898      484.6660002988       0.09  <-- CONV
        O_D=      7.7884114 O_OD=    315.5414287 O_TOT=    484.6660003 <-- SPRD
 Delta: O_D=  0.4109906E+00 O_OD= -0.4306786E+02 O_TOT= -0.4265687E+02 <-- DLTA
 ------------------------------------------------------------------------------
 Cycle:    200
  WF centre and spread    1  ( -0.000142, -0.000180,  0.000444 )     1.36888595
  WF centre and spread    2  ( -0.000073,  0.000149, -0.000654 )     1.36818530
  WF centre and spread    3  (  0.000460, -0.000165,  0.000046 )     1.34488971
  WF centre and spread    4  (  0.000006, -0.000184,  3.969232 )     1.37108102
  WF centre and spread    5  ( -0.000314,  0.000366,  3.969379 )     1.37252244
  WF centre and spread    6  (  0.000331, -0.000342,  3.969696 )     1.33867623
  WF centre and spread    7  (  2.806721,  2.807020,  3.969476 )     1.36908464
  WF centre and spread    8  (  2.806965,  2.806995,  3.969741 )     1.36801869
  WF centre and spread    9  (  2.807152,  2.807093,  3.969732 )     1.33853706
  WF centre and spread   10  (  2.806641,  2.806688,  0.000513 )     1.36546919
  WF centre and spread   11  (  2.807028,  2.807138,  0.000700 )     1.36482191
  WF centre and spread   12  (  2.807258,  2.806903, -0.000074 )     1.34496302
  WF centre and spread   13  (  0.404506, -0.046150,  0.615303 )    30.74324518
  WF centre and spread   14  ( -0.235349, -0.056509, -0.326295 )    32.26987476
  WF centre and spread   15  (  0.306589, -0.003330,  4.344900 )    30.18974144
  WF centre and spread   16  (  0.090482, -0.126540,  4.170801 )    25.06429072
  WF centre and spread   17  (  3.055705,  3.021462,  4.012505 )    31.08025551
  WF centre and spread   18  (  2.568844,  2.503936,  4.295716 )    30.33299936
  WF centre and spread   19  (  2.907869,  2.827768,  0.014089 )    29.86710556
  WF centre and spread   20  (  2.134602,  3.189306, -0.156700 )    27.98978478
  WF centre and spread   21  (  1.403601,  4.210424, -0.079123 )     1.07253307
  WF centre and spread   22  (  1.399523,  4.210906, -0.073029 )     1.33901618
  WF centre and spread   23  (  1.402770,  4.212028, -0.072392 )     1.33251250
  WF centre and spread   24  (  1.403469,  1.403598,  0.088442 )     1.08562454
  WF centre and spread   25  (  1.403278,  1.409425,  0.072132 )     1.32517693
  WF centre and spread   26  (  1.408159,  1.406223,  0.071690 )     1.33620109
  WF centre and spread   27  (  4.210675,  1.403435,  3.884476 )     1.08770564
  WF centre and spread   28  (  4.206306,  1.406103,  3.899827 )     1.36975538
  WF centre and spread   29  (  4.203900,  1.402373,  3.901274 )     1.38530105
  WF centre and spread   30  (  4.210582,  4.210460,  4.050917 )     1.07456051
  WF centre and spread   31  (  4.208059,  4.206057,  4.041194 )     1.37310000
  WF centre and spread   32  (  4.208840,  4.206341,  4.040435 )     1.37635117
  WF centre and spread   33  (  4.210666,  1.403469,  0.090880 )     1.08337089
  WF centre and spread   34  (  4.213597,  1.401673,  0.070572 )     1.34633654
  WF centre and spread   35  (  4.210013,  1.399761,  0.070223 )     1.33030474
  WF centre and spread   36  (  4.210634,  4.210594, -0.081479 )     1.08573027
  WF centre and spread   37  (  4.208701,  4.206910, -0.071027 )     1.33120956
  WF centre and spread   38  (  4.206357,  4.213233, -0.070954 )     1.32704406
  WF centre and spread   39  (  1.403686,  4.210686,  4.057663 )     1.09061989
  WF centre and spread   40  (  1.409948,  4.205195,  4.042406 )     1.35724291
  WF centre and spread   41  (  1.406838,  4.203374,  4.041037 )     1.37464371
  WF centre and spread   42  (  1.403500,  1.403287,  3.880254 )     1.07548956
  WF centre and spread   43  (  1.403174,  1.409257,  3.899262 )     1.37748004
  WF centre and spread   44  (  1.412596,  1.401744,  3.900541 )     1.37693091
  WF centre and spread   45  (  0.007786, -0.089839,  1.990791 )     1.84528387
  WF centre and spread   46  ( -0.001283, -0.102394,  1.985111 )     1.04915298
  WF centre and spread   47  ( -0.001356, -0.123324,  1.984811 )     1.05254553
  WF centre and spread   48  (  0.004618,  0.087103,  5.959153 )     1.89148259
  WF centre and spread   49  ( -0.002305,  0.104301,  5.954111 )     1.05581113
  WF centre and spread   50  ( -0.000803,  0.129840,  5.954416 )     1.06090360
  WF centre and spread   51  (  2.809326,  2.716992,  5.960732 )     1.86554243
  WF centre and spread   52  (  2.806030,  2.706352,  5.954419 )     1.04767178
  WF centre and spread   53  (  2.806166,  2.683434,  5.954259 )     1.04915409
  WF centre and spread   54  (  2.812107,  2.902792,  1.979331 )     1.88365286
  WF centre and spread   55  (  2.807450,  2.909444,  1.985045 )     1.04822714
  WF centre and spread   56  (  2.805572,  2.933462,  1.984585 )     1.05147207
  Sum of centres and spreads (112.297459,112.366143,136.090536 )   300.06757369

    200     0.248E-01    12.0812285449      300.0675736888      18.29  <-- CONV
        O_D=      4.0063781 O_OD=    134.7250353 O_TOT=    300.0675737 <-- SPRD
 Delta: O_D=  0.3028400E-01 O_OD= -0.5441475E-02 O_TOT=  0.2484252E-01 <-- DLTA
 ------------------------------------------------------------------------------
 Cycle:    400
  WF centre and spread    1  ( -0.000142, -0.000188,  0.000367 )     1.36743398
  WF centre and spread    2  ( -0.000123,  0.000160, -0.000582 )     1.36656478
  WF centre and spread    3  (  0.000535, -0.000109,  0.000050 )     1.34636824
  WF centre and spread    4  ( -0.000022, -0.000160,  3.969202 )     1.36897411
  WF centre and spread    5  ( -0.000325,  0.000408,  3.969445 )     1.37056675
  WF centre and spread    6  (  0.000395, -0.000319,  3.969683 )     1.34003873
  WF centre and spread    7  (  2.806749,  2.807045,  3.969449 )     1.36668307
  WF centre and spread    8  (  2.806977,  2.806940,  3.969891 )     1.36548669
  WF centre and spread    9  (  2.807178,  2.807110,  3.969729 )     1.33983241
  WF centre and spread   10  (  2.806660,  2.806753,  0.000552 )     1.36384529
  WF centre and spread   11  (  2.807050,  2.807115,  0.000702 )     1.36277835
  WF centre and spread   12  (  2.807296,  2.806929, -0.000070 )     1.34649799
  WF centre and spread   13  (  0.412422, -0.050947,  0.640506 )    30.48900466
  WF centre and spread   14  ( -0.256521, -0.041743, -0.329444 )    31.45168170
  WF centre and spread   15  (  0.359493,  0.005480,  4.346417 )    30.10834976
  WF centre and spread   16  (  0.069533, -0.121533,  4.150567 )    23.72253639
  WF centre and spread   17  (  3.097147,  3.053951,  3.997310 )    31.23848967
  WF centre and spread   18  (  2.523358,  2.437967,  4.267042 )    30.53444577
  WF centre and spread   19  (  2.933821,  2.831225,  0.013991 )    29.34863118
  WF centre and spread   20  (  2.084799,  3.233110, -0.182022 )    26.66994601
  WF centre and spread   21  (  1.403580,  4.210449, -0.079259 )     1.06912343
  WF centre and spread   22  (  1.399555,  4.210349, -0.072496 )     1.31769475
  WF centre and spread   23  (  1.403228,  4.211788, -0.071883 )     1.31026099
  WF centre and spread   24  (  1.403430,  1.403588,  0.088230 )     1.08347655
  WF centre and spread   25  (  1.403223,  1.409550,  0.071723 )     1.30505703
  WF centre and spread   26  (  1.408266,  1.406456,  0.071233 )     1.31452598
  WF centre and spread   27  (  4.210686,  1.403394,  3.883994 )     1.08959015
  WF centre and spread   28  (  4.205758,  1.406610,  3.899867 )     1.34697624
  WF centre and spread   29  (  4.203501,  1.402975,  3.901023 )     1.35797602
  WF centre and spread   30  (  4.210589,  4.210432,  4.050423 )     1.07312511
  WF centre and spread   31  (  4.207433,  4.205903,  4.040976 )     1.35254498
  WF centre and spread   32  (  4.208609,  4.205675,  4.040367 )     1.35230122
  WF centre and spread   33  (  4.210664,  1.403474,  0.090423 )     1.08020790
  WF centre and spread   34  (  4.213649,  1.401712,  0.070569 )     1.32808654
  WF centre and spread   35  (  4.209980,  1.399738,  0.070255 )     1.30990824
  WF centre and spread   36  (  4.210619,  4.210587, -0.081209 )     1.08353965
  WF centre and spread   37  (  4.208711,  4.207316, -0.070846 )     1.30956328
  WF centre and spread   38  (  4.206786,  4.213183, -0.070858 )     1.30583390
  WF centre and spread   39  (  1.403654,  4.210738,  4.057224 )     1.09263066
  WF centre and spread   40  (  1.410277,  4.204617,  4.041930 )     1.33512737
  WF centre and spread   41  (  1.407619,  4.202896,  4.040870 )     1.34929187
  WF centre and spread   42  (  1.403505,  1.403255,  3.880191 )     1.07354461
  WF centre and spread   43  (  1.403021,  1.409448,  3.899288 )     1.35660777
  WF centre and spread   44  (  1.412667,  1.401942,  3.900438 )     1.35197439
  WF centre and spread   45  (  0.007050, -0.089462,  1.992581 )     1.76960997
  WF centre and spread   46  ( -0.001397, -0.102166,  1.985096 )     1.04890094
  WF centre and spread   47  ( -0.001439, -0.122722,  1.984815 )     1.05213476
  WF centre and spread   48  (  0.004636,  0.087132,  5.955478 )     1.80903684
  WF centre and spread   49  ( -0.002613,  0.104276,  5.954120 )     1.05560882
  WF centre and spread   50  ( -0.001075,  0.129678,  5.954389 )     1.06078865
  WF centre and spread   51  (  2.809416,  2.717417,  5.959032 )     1.78290872
  WF centre and spread   52  (  2.805718,  2.706374,  5.954446 )     1.04786563
  WF centre and spread   53  (  2.806177,  2.684040,  5.954243 )     1.04842477
  WF centre and spread   54  (  2.811783,  2.901633,  1.980863 )     1.80310476
  WF centre and spread   55  (  2.807527,  2.909471,  1.984986 )     1.04850673
  WF centre and spread   56  (  2.805632,  2.933491,  1.984606 )     1.05135938
  Sum of centres and spreads (112.286707,112.404430,136.019913 )   295.39537412

    400     0.106E+00    14.0954704493      295.3953741203      36.44  <-- CONV
        O_D=      3.7649927 O_OD=    130.2942212 O_TOT=    295.3953741 <-- SPRD
 Delta: O_D=  0.1142621E+00 O_OD= -0.8186077E-02 O_TOT=  0.1060760E+00 <-- DLTA
 ------------------------------------------------------------------------------
 Cycle:    600
  WF centre and spread    1  ( -0.000124, -0.000175,  0.000295 )     1.36619124
  WF centre and spread    2  ( -0.000141,  0.000154, -0.000515 )     1.36520896
  WF centre and spread    3  (  0.000607, -0.000056,  0.000054 )     1.34770113
  WF centre and spread    4  ( -0.000022, -0.000112,  3.969174 )     1.36736021
  WF centre and spread    5  ( -0.000315,  0.000411,  3.969493 )     1.36910086
  WF centre and spread    6  (  0.000451, -0.000280,  3.969671 )     1.34140492
  WF centre and spread    7  (  2.806790,  2.807078,  3.969417 )     1.36480427
  WF centre and spread    8  (  2.807007,  2.806888,  3.970009 )     1.36360390
  WF centre and spread    9  (  2.807195,  2.807145,  3.969726 )     1.34111020
  WF centre and spread   10  (  2.806703,  2.806832,  0.000586 )     1.36267322
  WF centre and spread   11  (  2.807069,  2.807085,  0.000686 )     1.36127534
  WF centre and spread   12  (  2.807313,  2.806955, -0.000065 )     1.34782886
  WF centre and spread   13  (  0.478444, -0.049486,  0.661453 )    30.20791556
  WF centre and spread   14  ( -0.274265, -0.036297, -0.338379 )    30.67732191
  WF centre and spread   15  (  0.406622,  0.013030,  4.288743 )    29.86054786
  WF centre and spread   16  (  0.054154, -0.135593,  4.136969 )    22.57964354
  WF centre and spread   17  (  3.148035,  3.128865,  3.995788 )    31.34661469
  WF centre and spread   18  (  2.500995,  2.385160,  4.267021 )    30.82322816
  WF centre and spread   19  (  2.951615,  2.829736,  0.011754 )    28.97651792
  WF centre and spread   20  (  2.038089,  3.277201, -0.198933 )    25.44866742
  WF centre and spread   21  (  1.403555,  4.210473, -0.079401 )     1.06564428
  WF centre and spread   22  (  1.399650,  4.210006, -0.072101 )     1.30119479
  WF centre and spread   23  (  1.403606,  4.211675, -0.071474 )     1.29385961
  WF centre and spread   24  (  1.403404,  1.403573,  0.088037 )     1.08137991
  WF centre and spread   25  (  1.403240,  1.409626,  0.071434 )     1.29132708
  WF centre and spread   26  (  1.408379,  1.406667,  0.070883 )     1.29992849
  WF centre and spread   27  (  4.210693,  1.403367,  3.883446 )     1.09090183
  WF centre and spread   28  (  4.205303,  1.406987,  3.899917 )     1.32873834
  WF centre and spread   29  (  4.203144,  1.403500,  3.900847 )     1.33686423
  WF centre and spread   30  (  4.210599,  4.210408,  4.050012 )     1.07210012
  WF centre and spread   31  (  4.206883,  4.205775,  4.040828 )     1.33603349
  WF centre and spread   32  (  4.208385,  4.205021,  4.040323 )     1.33415550
  WF centre and spread   33  (  4.210654,  1.403492,  0.089903 )     1.07676141
  WF centre and spread   34  (  4.213611,  1.401655,  0.070594 )     1.31522941
  WF centre and spread   35  (  4.209976,  1.399731,  0.070293 )     1.29566799
  WF centre and spread   36  (  4.210584,  4.210567, -0.080961 )     1.08144488
  WF centre and spread   37  (  4.208620,  4.207672, -0.070731 )     1.29390605
  WF centre and spread   38  (  4.207050,  4.213135, -0.070793 )     1.29093782
  WF centre and spread   39  (  1.403617,  4.210778,  4.056621 )     1.09407518
  WF centre and spread   40  (  1.410651,  4.204108,  4.041551 )     1.31677794
  WF centre and spread   41  (  1.408419,  4.202547,  4.040743 )     1.32894451
  WF centre and spread   42  (  1.403499,  1.403240,  3.880247 )     1.07178043
  WF centre and spread   43  (  1.402924,  1.409409,  3.899310 )     1.33915496
  WF centre and spread   44  (  1.412665,  1.402137,  3.900345 )     1.33202484
  WF centre and spread   45  (  0.006279, -0.089077,  1.994190 )     1.70709076
  WF centre and spread   46  ( -0.001454, -0.101922,  1.985080 )     1.04858073
  WF centre and spread   47  ( -0.001492, -0.122161,  1.984803 )     1.05194413
  WF centre and spread   48  (  0.004394,  0.087128,  5.952050 )     1.74500408
  WF centre and spread   49  ( -0.002835,  0.104226,  5.954136 )     1.05539555
  WF centre and spread   50  ( -0.001266,  0.129526,  5.954386 )     1.06025493
  WF centre and spread   51  (  2.809366,  2.717798,  5.957520 )     1.71880535
  WF centre and spread   52  (  2.805531,  2.706360,  5.954465 )     1.04763538
  WF centre and spread   53  (  2.806212,  2.684629,  5.954233 )     1.04786712
  WF centre and spread   54  (  2.811450,  2.900670,  1.982448 )     1.74138328
  WF centre and spread   55  (  2.807632,  2.909501,  1.984912 )     1.04850689
  WF centre and spread   56  (  2.805743,  2.933529,  1.984626 )     1.05167115
  Sum of centres and spreads (112.364890,112.470294,135.935670 )   291.21169259

    600    -0.145E-01     5.3465986469      291.2116925923      54.83  <-- CONV
        O_D=      3.2287918 O_OD=    126.6467406 O_TOT=    291.2116926 <-- SPRD
 Delta: O_D= -0.1202302E-01 O_OD= -0.2428664E-02 O_TOT= -0.1445169E-01 <-- DLTA
 ------------------------------------------------------------------------------
 Cycle:    800
  WF centre and spread    1  ( -0.000088, -0.000150,  0.000234 )     1.36522034
  WF centre and spread    2  ( -0.000146,  0.000135, -0.000433 )     1.36420632
  WF centre and spread    3  (  0.000656,  0.000013,  0.000059 )     1.34883087
  WF centre and spread    4  (  0.000000, -0.000044,  3.969151 )     1.36629394
  WF centre and spread    5  ( -0.000299,  0.000399,  3.969534 )     1.36824508
  WF centre and spread    6  (  0.000485, -0.000224,  3.969659 )     1.34276229
  WF centre and spread    7  (  2.806841,  2.807108,  3.969360 )     1.36334040
  WF centre and spread    8  (  2.807046,  2.806836,  3.970118 )     1.36225954
  WF centre and spread    9  (  2.807184,  2.807180,  3.969722 )     1.34244113
  WF centre and spread   10  (  2.806754,  2.806916,  0.000611 )     1.36187567
  WF centre and spread   11  (  2.807088,  2.807060,  0.000679 )     1.36016174
  WF centre and spread   12  (  2.807303,  2.806971, -0.000052 )     1.34899251
  WF centre and spread   13  (  0.520166, -0.055188,  0.689896 )    30.07426888
  WF centre and spread   14  ( -0.292064, -0.033678, -0.349093 )    29.93386572
  WF centre and spread   15  (  0.469610,  0.037979,  4.268981 )    29.64541118
  WF centre and spread   16  (  0.059842, -0.152655,  4.125788 )    21.55702439
  WF centre and spread   17  (  3.214390,  3.186377,  3.997238 )    31.69015451
  WF centre and spread   18  (  2.512046,  2.344871,  4.287902 )    31.31316596
  WF centre and spread   19  (  2.970245,  2.821367,  0.003685 )    28.69313090
  WF centre and spread   20  (  1.990461,  3.331365, -0.211569 )    24.34973623
  WF centre and spread   21  (  1.403536,  4.210499, -0.079494 )     1.06215248
  WF centre and spread   22  (  1.399855,  4.209585, -0.071780 )     1.28905050
  WF centre and spread   23  (  1.404029,  4.211561, -0.071132 )     1.28171720
  WF centre and spread   24  (  1.403384,  1.403557,  0.087881 )     1.07964331
  WF centre and spread   25  (  1.403365,  1.409824,  0.071194 )     1.28282615
  WF centre and spread   26  (  1.408580,  1.406884,  0.070600 )     1.28965208
  WF centre and spread   27  (  4.210700,  1.403348,  3.882900 )     1.09204900
  WF centre and spread   28  (  4.204878,  1.407572,  3.899966 )     1.31578858
  WF centre and spread   29  (  4.202723,  1.404092,  3.900699 )     1.32057153
  WF centre and spread   30  (  4.210613,  4.210389,  4.049672 )     1.07150347
  WF centre and spread   31  (  4.206351,  4.205526,  4.040747 )     1.32388143
  WF centre and spread   32  (  4.208210,  4.204287,  4.040356 )     1.31978942
  WF centre and spread   33  (  4.210640,  1.403518,  0.089387 )     1.07312555
  WF centre and spread   34  (  4.213413,  1.401796,  0.070595 )     1.30724457
  WF centre and spread   35  (  4.209799,  1.399857,  0.070326 )     1.28620981
  WF centre and spread   36  (  4.210542,  4.210536, -0.080698 )     1.07956628
  WF centre and spread   37  (  4.208315,  4.207792, -0.070629 )     1.28305737
  WF centre and spread   38  (  4.207038,  4.212993, -0.070715 )     1.28011312
  WF centre and spread   39  (  1.403573,  4.210813,  4.055861 )     1.09505480
  WF centre and spread   40  (  1.411151,  4.203404,  4.041246 )     1.30412212
  WF centre and spread   41  (  1.409373,  4.202138,  4.040603 )     1.31302407
  WF centre and spread   42  (  1.403496,  1.403233,  3.880420 )     1.07047332
  WF centre and spread   43  (  1.402933,  1.409422,  3.899341 )     1.32623763
  WF centre and spread   44  (  1.412728,  1.402488,  3.900286 )     1.31570141
  WF centre and spread   45  (  0.005561, -0.088687,  1.995716 )     1.65364879
  WF centre and spread   46  ( -0.001453, -0.101681,  1.985063 )     1.04809728
  WF centre and spread   47  ( -0.001501, -0.121652,  1.984786 )     1.05168687
  WF centre and spread   48  (  0.004085,  0.087141,  5.948973 )     1.69401717
  WF centre and spread   49  ( -0.002925,  0.104164,  5.954166 )     1.05495243
  WF centre and spread   50  ( -0.001408,  0.129366,  5.954399 )     1.05960523
  WF centre and spread   51  (  2.809329,  2.718095,  5.956107 )     1.66392027
  WF centre and spread   52  (  2.805498,  2.706344,  5.954485 )     1.04704395
  WF centre and spread   53  (  2.806280,  2.685235,  5.954234 )     1.04701859
  WF centre and spread   54  (  2.811107,  2.899779,  1.984076 )     1.68878842
  WF centre and spread   55  (  2.807785,  2.909541,  1.984843 )     1.04829085
  WF centre and spread   56  (  2.805907,  2.933552,  1.984660 )     1.05163267
  Sum of centres and spreads (112.505011,112.538947,135.920612 )   288.12264533

    800    -0.487E-01    11.7242843378      288.1226453272      73.01  <-- CONV
        O_D=      3.2616141 O_OD=    123.5248710 O_TOT=    288.1226453 <-- SPRD
 Delta: O_D= -0.2342793E-01 O_OD= -0.2524814E-01 O_TOT= -0.4867608E-01 <-- DLTA
 ------------------------------------------------------------------------------
 Cycle:   1000
  WF centre and spread    1  ( -0.000075, -0.000143,  0.000161 )     1.36481384
  WF centre and spread    2  ( -0.000161,  0.000140, -0.000348 )     1.36362975
  WF centre and spread    3  (  0.000680,  0.000064,  0.000062 )     1.34969758
  WF centre and spread    4  ( -0.000001, -0.000011,  3.969115 )     1.36579520
  WF centre and spread    5  ( -0.000305,  0.000410,  3.969583 )     1.36773364
  WF centre and spread    6  (  0.000500, -0.000172,  3.969652 )     1.34387325
  WF centre and spread    7  (  2.806852,  2.807098,  3.969303 )     1.36258441
  WF centre and spread    8  (  2.807058,  2.806814,  3.970200 )     1.36153372
  WF centre and spread    9  (  2.807174,  2.807225,  3.969721 )     1.34354401
  WF centre and spread   10  (  2.806773,  2.806960,  0.000609 )     1.36150971
  WF centre and spread   11  (  2.807078,  2.807062,  0.000681 )     1.35958024
  WF centre and spread   12  (  2.807291,  2.806993, -0.000045 )     1.34976082
  WF centre and spread   13  (  0.538760, -0.052556,  0.714385 )    30.00677082
  WF centre and spread   14  ( -0.275729,  0.018854, -0.339263 )    29.39863067
  WF centre and spread   15  (  0.505633,  0.081671,  4.221624 )    29.40594802
  WF centre and spread   16  (  0.064253, -0.164137,  4.113600 )    20.82830909
  WF centre and spread   17  (  3.248213,  3.209840,  3.989399 )    31.81317341
  WF centre and spread   18  (  2.528145,  2.296344,  4.290601 )    31.71051128
  WF centre and spread   19  (  2.975500,  2.810837, -0.003955 )    28.52581947
  WF centre and spread   20  (  1.957827,  3.377206, -0.211549 )    23.42465307
  WF centre and spread   21  (  1.403531,  4.210508, -0.079542 )     1.05955077
  WF centre and spread   22  (  1.399964,  4.209409, -0.071577 )     1.27966281
  WF centre and spread   23  (  1.404263,  4.211553, -0.070916 )     1.27398854
  WF centre and spread   24  (  1.403374,  1.403542,  0.087725 )     1.07821351
  WF centre and spread   25  (  1.403422,  1.409911,  0.071040 )     1.27621968
  WF centre and spread   26  (  1.408697,  1.406938,  0.070418 )     1.28259284
  WF centre and spread   27  (  4.210703,  1.403326,  3.882488 )     1.09299915
  WF centre and spread   28  (  4.204444,  1.408188,  3.900008 )     1.30892472
  WF centre and spread   29  (  4.202232,  1.404649,  3.900635 )     1.31167905
  WF centre and spread   30  (  4.210626,  4.210383,  4.049431 )     1.07113875
  WF centre and spread   31  (  4.205887,  4.205219,  4.040693 )     1.31674543
  WF centre and spread   32  (  4.207987,  4.203601,  4.040347 )     1.31150935
  WF centre and spread   33  (  4.210620,  1.403534,  0.088963 )     1.07028032
  WF centre and spread   34  (  4.213248,  1.401834,  0.070591 )     1.30147163
  WF centre and spread   35  (  4.209733,  1.400041,  0.070345 )     1.28035160
  WF centre and spread   36  (  4.210511,  4.210517, -0.080488 )     1.07797690
  WF centre and spread   37  (  4.208149,  4.207954, -0.070582 )     1.27456890
  WF centre and spread   38  (  4.207016,  4.212905, -0.070654 )     1.27319540
  WF centre and spread   39  (  1.403540,  4.210838,  4.055217 )     1.09569374
  WF centre and spread   40  (  1.411671,  4.202728,  4.041040 )     1.29695343
  WF centre and spread   41  (  1.410324,  4.201705,  4.040504 )     1.30391181
  WF centre and spread   42  (  1.403504,  1.403238,  3.880605 )     1.06939986
  WF centre and spread   43  (  1.403057,  1.409502,  3.899328 )     1.31860655
  WF centre and spread   44  (  1.412854,  1.402897,  3.900249 )     1.30634114
  WF centre and spread   45  (  0.004970, -0.088428,  1.996874 )     1.61317762
  WF centre and spread   46  ( -0.001463, -0.101504,  1.985039 )     1.04744987
  WF centre and spread   47  ( -0.001511, -0.121278,  1.984764 )     1.05088932
  WF centre and spread   48  (  0.003709,  0.087137,  5.946575 )     1.65454943
  WF centre and spread   49  ( -0.002971,  0.104097,  5.954182 )     1.05420214
  WF centre and spread   50  ( -0.001495,  0.129226,  5.954423 )     1.05886991
  WF centre and spread   51  (  2.809193,  2.718285,  5.954969 )     1.62318565
  WF centre and spread   52  (  2.805496,  2.706316,  5.954493 )     1.04619120
  WF centre and spread   53  (  2.806358,  2.685704,  5.954243 )     1.04636701
  WF centre and spread   54  (  2.810756,  2.899183,  1.985376 )     1.65116147
  WF centre and spread   55  (  2.807868,  2.909532,  1.984772 )     1.04802682
  WF centre and spread   56  (  2.806038,  2.933543,  1.984711 )     1.05061713
  Sum of centres and spreads (112.601767,112.637232,135.879824 )   285.68453545

   1000    -0.874E-03    17.3186141736      285.6845354460      91.21  <-- CONV
        O_D=      3.1248038 O_OD=    121.2235714 O_TOT=    285.6845354 <-- SPRD
 Delta: O_D=  0.1662648E-02 O_OD= -0.2536801E-02 O_TOT= -0.8741529E-03 <-- DLTA
 ------------------------------------------------------------------------------
 Cycle:   1200
  WF centre and spread    1  ( -0.000087, -0.000161,  0.000106 )     1.36464008
  WF centre and spread    2  ( -0.000201,  0.000171, -0.000265 )     1.36316843
  WF centre and spread    3  (  0.000696,  0.000115,  0.000065 )     1.35020242
  WF centre and spread    4  ( -0.000023, -0.000004,  3.969091 )     1.36568496
  WF centre and spread    5  ( -0.000339,  0.000445,  3.969629 )     1.36749124
  WF centre and spread    6  (  0.000497, -0.000116,  3.969648 )     1.34464986
  WF centre and spread    7  (  2.806842,  2.807064,  3.969238 )     1.36214339
  WF centre and spread    8  (  2.807048,  2.806821,  3.970260 )     1.36114224
  WF centre and spread    9  (  2.807145,  2.807282,  3.969725 )     1.34432582
  WF centre and spread   10  (  2.806756,  2.806969,  0.000624 )     1.36149554
  WF centre and spread   11  (  2.807039,  2.807099,  0.000672 )     1.35926104
  WF centre and spread   12  (  2.807271,  2.807007, -0.000033 )     1.35019628
  WF centre and spread   13  (  0.554013, -0.050262,  0.740769 )    29.95758033
  WF centre and spread   14  ( -0.300077, -0.013015, -0.339407 )    28.73562605
  WF centre and spread   15  (  0.555115,  0.109562,  4.208844 )    29.25293322
  WF centre and spread   16  (  0.070774, -0.178475,  4.106751 )    20.12878917
  WF centre and spread   17  (  3.291941,  3.242346,  3.991677 )    32.00857761
  WF centre and spread   18  (  2.544913,  2.255203,  4.307404 )    32.16029326
  WF centre and spread   19  (  2.978264,  2.794400, -0.008682 )    28.36212531
  WF centre and spread   20  (  1.921119,  3.421098, -0.212646 )    22.61708736
  WF centre and spread   21  (  1.403528,  4.210515, -0.079540 )     1.05713634
  WF centre and spread   22  (  1.400067,  4.209248, -0.071379 )     1.27126658
  WF centre and spread   23  (  1.404534,  4.211549, -0.070719 )     1.26633539
  WF centre and spread   24  (  1.403377,  1.403530,  0.087619 )     1.07686921
  WF centre and spread   25  (  1.403514,  1.410002,  0.070939 )     1.27071675
  WF centre and spread   26  (  1.408810,  1.407036,  0.070296 )     1.27653693
  WF centre and spread   27  (  4.210704,  1.403301,  3.882163 )     1.09376886
  WF centre and spread   28  (  4.204108,  1.408752,  3.900020 )     1.30197262
  WF centre and spread   29  (  4.201849,  1.405151,  3.900560 )     1.30348511
  WF centre and spread   30  (  4.210645,  4.210390,  4.049284 )     1.07084707
  WF centre and spread   31  (  4.205414,  4.204909,  4.040672 )     1.30897952
  WF centre and spread   32  (  4.207707,  4.202925,  4.040415 )     1.30315447
  WF centre and spread   33  (  4.210613,  1.403539,  0.088567 )     1.06749432
  WF centre and spread   34  (  4.213021,  1.401961,  0.070567 )     1.29777353
  WF centre and spread   35  (  4.209573,  1.400244,  0.070361 )     1.27588866
  WF centre and spread   36  (  4.210491,  4.210512, -0.080307 )     1.07661176
  WF centre and spread   37  (  4.207807,  4.207981, -0.070530 )     1.26749341
  WF centre and spread   38  (  4.206911,  4.212810, -0.070578 )     1.26649520
  WF centre and spread   39  (  1.403510,  4.210851,  4.054546 )     1.09641271
  WF centre and spread   40  (  1.412100,  4.202040,  4.040911 )     1.28934213
  WF centre and spread   41  (  1.411238,  4.201357,  4.040436 )     1.29500407
  WF centre and spread   42  (  1.403508,  1.403257,  3.880816 )     1.06859979
  WF centre and spread   43  (  1.403242,  1.409464,  3.899298 )     1.31098343
  WF centre and spread   44  (  1.412888,  1.403372,  3.900196 )     1.29624152
  WF centre and spread   45  (  0.004468, -0.088192,  1.997962 )     1.57891982
  WF centre and spread   46  ( -0.001443, -0.101344,  1.985016 )     1.04713687
  WF centre and spread   47  ( -0.001524, -0.120954,  1.984752 )     1.05075203
  WF centre and spread   48  (  0.003352,  0.087170,  5.944539 )     1.62375227
  WF centre and spread   49  ( -0.002927,  0.104007,  5.954227 )     1.05367099
  WF centre and spread   50  ( -0.001546,  0.129090,  5.954442 )     1.05828065
  WF centre and spread   51  (  2.809035,  2.718447,  5.954095 )     1.58863529
  WF centre and spread   52  (  2.805635,  2.706288,  5.954487 )     1.04554551
  WF centre and spread   53  (  2.806428,  2.686140,  5.954258 )     1.04579839
  WF centre and spread   54  (  2.810443,  2.898656,  1.986596 )     1.61886516
  WF centre and spread   55  (  2.807996,  2.909513,  1.984721 )     1.04765373
  WF centre and spread   56  (  2.806176,  2.933525,  1.984749 )     1.05039764
  Sum of centres and spreads (112.673961,112.640593,135.897926 )   283.53623134

   1200    -0.116E-01     5.0189790936      283.5362313358     109.59  <-- CONV
        O_D=      3.0495250 O_OD=    119.1505461 O_TOT=    283.5362313 <-- SPRD
 Delta: O_D= -0.1320516E-02 O_OD= -0.1027210E-01 O_TOT= -0.1159262E-01 <-- DLTA
 ------------------------------------------------------------------------------
 Cycle:   1400
  WF centre and spread    1  ( -0.000112, -0.000187,  0.000072 )     1.36478231
  WF centre and spread    2  ( -0.000236,  0.000199, -0.000198 )     1.36323738
  WF centre and spread    3  (  0.000698,  0.000154,  0.000067 )     1.35034412
  WF centre and spread    4  ( -0.000053, -0.000019,  3.969090 )     1.36573486
  WF centre and spread    5  ( -0.000368,  0.000478,  3.969669 )     1.36752783
  WF centre and spread    6  (  0.000481, -0.000069,  3.969647 )     1.34504233
  WF centre and spread    7  (  2.806816,  2.807024,  3.969196 )     1.36206256
  WF centre and spread    8  (  2.807027,  2.806838,  3.970282 )     1.36134171
  WF centre and spread    9  (  2.807130,  2.807329,  3.969727 )     1.34471307
  WF centre and spread   10  (  2.806742,  2.806965,  0.000639 )     1.36170528
  WF centre and spread   11  (  2.806997,  2.807138,  0.000652 )     1.35955899
  WF centre and spread   12  (  2.807263,  2.807020, -0.000025 )     1.35022231
  WF centre and spread   13  (  0.557109, -0.054866,  0.756345 )    29.96727491
  WF centre and spread   14  ( -0.310026,  0.020278, -0.323945 )    28.34279760
  WF centre and spread   15  (  0.565839,  0.140762,  4.182895 )    29.05720140
  WF centre and spread   16  (  0.072857, -0.192297,  4.095323 )    19.60902956
  WF centre and spread   17  (  3.319968,  3.259221,  3.992233 )    32.12479368
  WF centre and spread   18  (  2.556158,  2.219676,  4.321846 )    32.45167215
  WF centre and spread   19  (  2.975665,  2.780580, -0.013317 )    28.17178379
  WF centre and spread   20  (  1.897320,  3.456476, -0.213191 )    21.96055138
  WF centre and spread   21  (  1.403522,  4.210522, -0.079540 )     1.05558990
  WF centre and spread   22  (  1.400139,  4.209081, -0.071240 )     1.26572804
  WF centre and spread   23  (  1.404708,  4.211484, -0.070601 )     1.26150351
  WF centre and spread   24  (  1.403374,  1.403525,  0.087501 )     1.07594370
  WF centre and spread   25  (  1.403589,  1.410110,  0.070870 )     1.26783086
  WF centre and spread   26  (  1.408865,  1.407096,  0.070228 )     1.27282201
  WF centre and spread   27  (  4.210701,  1.403293,  3.881940 )     1.09445647
  WF centre and spread   28  (  4.203859,  1.409261,  3.899997 )     1.29695541
  WF centre and spread   29  (  4.201603,  1.405562,  3.900520 )     1.29597932
  WF centre and spread   30  (  4.210660,  4.210398,  4.049202 )     1.07089703
  WF centre and spread   31  (  4.205110,  4.204628,  4.040645 )     1.30374340
  WF centre and spread   32  (  4.207575,  4.202364,  4.040414 )     1.29649219
  WF centre and spread   33  (  4.210605,  1.403531,  0.088248 )     1.06539560
  WF centre and spread   34  (  4.212779,  1.402123,  0.070539 )     1.29505929
  WF centre and spread   35  (  4.209475,  1.400495,  0.070374 )     1.27309550
  WF centre and spread   36  (  4.210478,  4.210510, -0.080206 )     1.07585509
  WF centre and spread   37  (  4.207546,  4.207922, -0.070502 )     1.26280633
  WF centre and spread   38  (  4.206759,  4.212667, -0.070546 )     1.26272905
  WF centre and spread   39  (  1.403483,  4.210856,  4.054090 )     1.09706679
  WF centre and spread   40  (  1.412386,  4.201450,  4.040843 )     1.28467085
  WF centre and spread   41  (  1.411884,  4.201092,  4.040396 )     1.28882713
  WF centre and spread   42  (  1.403515,  1.403278,  3.880995 )     1.06796895
  WF centre and spread   43  (  1.403356,  1.409451,  3.899260 )     1.30537104
  WF centre and spread   44  (  1.412771,  1.403796,  3.900128 )     1.28941470
  WF centre and spread   45  (  0.004053, -0.088039,  1.998726 )     1.55348420
  WF centre and spread   46  ( -0.001423, -0.101245,  1.985006 )     1.04698313
  WF centre and spread   47  ( -0.001532, -0.120759,  1.984728 )     1.05013258
  WF centre and spread   48  (  0.003041,  0.087179,  5.943028 )     1.60101632
  WF centre and spread   49  ( -0.002878,  0.103943,  5.954249 )     1.05280271
  WF centre and spread   50  ( -0.001596,  0.128971,  5.954468 )     1.05753083
  WF centre and spread   51  (  2.808903,  2.718551,  5.953398 )     1.56229624
  WF centre and spread   52  (  2.805764,  2.706266,  5.954481 )     1.04540102
  WF centre and spread   53  (  2.806498,  2.686447,  5.954280 )     1.04513393
  WF centre and spread   54  (  2.810182,  2.898297,  1.987545 )     1.59485419
  WF centre and spread   55  (  2.808051,  2.909470,  1.984676 )     1.04706545
  WF centre and spread   56  (  2.806293,  2.933501,  1.984775 )     1.04958368
  Sum of centres and spreads (112.691371,112.689779,135.899920 )   281.81386367

   1400    -0.347E-01     4.0312283786      281.8138636666     127.84  <-- CONV
        O_D=      2.9335842 O_OD=    117.5441193 O_TOT=    281.8138637 <-- SPRD
 Delta: O_D=  0.2201796E-02 O_OD= -0.3694704E-01 O_TOT= -0.3474524E-01 <-- DLTA
 ------------------------------------------------------------------------------
 Cycle:   1600
  WF centre and spread    1  ( -0.000106, -0.000186,  0.000060 )     1.36444679
  WF centre and spread    2  ( -0.000244,  0.000206, -0.000144 )     1.36285482
  WF centre and spread    3  (  0.000699,  0.000200,  0.000069 )     1.35050065
  WF centre and spread    4  ( -0.000058, -0.000010,  3.969098 )     1.36534584
  WF centre and spread    5  ( -0.000382,  0.000497,  3.969689 )     1.36725494
  WF centre and spread    6  (  0.000475, -0.000007,  3.969646 )     1.34546398
  WF centre and spread    7  (  2.806819,  2.807010,  3.969173 )     1.36157827
  WF centre and spread    8  (  2.807036,  2.806824,  3.970278 )     1.36118702
  WF centre and spread    9  (  2.807102,  2.807396,  3.969731 )     1.34521657
  WF centre and spread   10  (  2.806755,  2.806983,  0.000646 )     1.36141862
  WF centre and spread   11  (  2.806984,  2.807145,  0.000629 )     1.35937936
  WF centre and spread   12  (  2.807264,  2.807044, -0.000014 )     1.35034733
  WF centre and spread   13  (  0.570868, -0.052512,  0.769540 )    29.92467600
  WF centre and spread   14  ( -0.320399,  0.033910, -0.310922 )    27.96787839
  WF centre and spread   15  (  0.584687,  0.173142,  4.171163 )    28.91086290
  WF centre and spread   16  (  0.078709, -0.195546,  4.083754 )    19.08453995
  WF centre and spread   17  (  3.355217,  3.290100,  3.997131 )    32.23684376
  WF centre and spread   18  (  2.584192,  2.196213,  4.331291 )    32.83612486
  WF centre and spread   19  (  2.967081,  2.763631, -0.019307 )    27.98733682
  WF centre and spread   20  (  1.875065,  3.491544, -0.208836 )    21.38844180
  WF centre and spread   21  (  1.403516,  4.210525, -0.079524 )     1.05408117
  WF centre and spread   22  (  1.400196,  4.209003, -0.071126 )     1.26008941
  WF centre and spread   23  (  1.404886,  4.211491, -0.070517 )     1.25737683
  WF centre and spread   24  (  1.403372,  1.403515,  0.087363 )     1.07497969
  WF centre and spread   25  (  1.403652,  1.410157,  0.070831 )     1.26464630
  WF centre and spread   26  (  1.408950,  1.407120,  0.070177 )     1.26978140
  WF centre and spread   27  (  4.210699,  1.403280,  3.881767 )     1.09506178
  WF centre and spread   28  (  4.203497,  1.409886,  3.899971 )     1.29293115
  WF centre and spread   29  (  4.201146,  1.406085,  3.900475 )     1.29184739
  WF centre and spread   30  (  4.210669,  4.210408,  4.049168 )     1.07076479
  WF centre and spread   31  (  4.204668,  4.204262,  4.040622 )     1.29917137
  WF centre and spread   32  (  4.207244,  4.201716,  4.040434 )     1.29189032
[...]
  WF centre and spread   13  ( -0.066136, -0.180212,  0.159514 )    25.42331577
  WF centre and spread   14  (  0.047823,  0.019008, -0.009658 )    18.42189838
  WF centre and spread   15  (  1.174277,  0.818073,  4.879958 )    27.75935811
  WF centre and spread   16  (  0.067709, -0.108735,  3.974596 )    12.65099845
  WF centre and spread   17  (  4.069655,  4.104577,  4.628295 )    27.44754781
  WF centre and spread   18  (  2.720543,  2.422293,  4.044765 )    34.05990365
  WF centre and spread   19  (  2.523693,  2.454076, -0.205029 )    26.21961591
  WF centre and spread   20  (  1.465013,  4.259392, -0.051213 )    18.44203444
  WF centre and spread   21  (  1.403476,  4.210434, -0.080028 )     1.04265033
  WF centre and spread   22  (  1.417190,  4.194453, -0.070619 )     1.23357477
  WF centre and spread   23  (  1.417377,  4.196836, -0.071151 )     1.24331427
  WF centre and spread   24  (  1.403494,  1.403441,  0.084266 )     1.05745425
  WF centre and spread   25  (  1.416762,  1.418492,  0.070724 )     1.22317035
  WF centre and spread   26  (  1.419397,  1.417617,  0.070851 )     1.22291360
  WF centre and spread   27  (  4.210506,  1.403464,  3.886818 )     1.08978897
  WF centre and spread   28  (  4.189228,  1.424708,  3.898693 )     1.29718055
  WF centre and spread   29  (  4.188261,  1.422515,  3.899041 )     1.29114600
  WF centre and spread   30  (  4.210582,  4.210574,  4.051440 )     1.07168748
  WF centre and spread   31  (  4.193799,  4.191615,  4.040840 )     1.28286045
  WF centre and spread   32  (  4.193703,  4.192999,  4.040319 )     1.27664784
  WF centre and spread   33  (  4.210463,  1.403437,  0.083108 )     1.04420279
  WF centre and spread   34  (  4.198197,  1.415872,  0.071061 )     1.25525118
  WF centre and spread   35  (  4.195566,  1.415577,  0.070799 )     1.24678402
  WF centre and spread   36  (  4.210438,  4.210481, -0.078282 )     1.05928819
  WF centre and spread   37  (  4.196719,  4.197953, -0.070791 )     1.23058478
  WF centre and spread   38  (  4.198072,  4.199150, -0.070808 )     1.23310201
  WF centre and spread   39  (  1.403344,  4.210696,  4.049699 )     1.09697678
  WF centre and spread   40  (  1.431068,  4.182034,  4.040559 )     1.29448941
  WF centre and spread   41  (  1.432594,  4.181714,  4.040385 )     1.29590610
  WF centre and spread   42  (  1.403591,  1.403518,  3.884898 )     1.06773645
  WF centre and spread   43  (  1.420038,  1.421373,  3.898772 )     1.27610985
  WF centre and spread   44  (  1.422272,  1.420874,  3.899229 )     1.26434981
  WF centre and spread   45  (  0.000053, -0.089303,  2.023144 )     1.45785487
  WF centre and spread   46  ( -0.001289, -0.100111,  1.985086 )     1.03357208
  WF centre and spread   47  ( -0.000732, -0.121939,  1.984556 )     1.03618370
  WF centre and spread   48  ( -0.000374,  0.087737,  5.910647 )     1.46924242
  WF centre and spread   49  ( -0.001383,  0.101387,  5.954474 )     1.03597357
  WF centre and spread   50  ( -0.000928,  0.123782,  5.954494 )     1.04360484
  WF centre and spread   51  (  2.806474,  2.717470,  5.937767 )     1.40816761
  WF centre and spread   52  (  2.807448,  2.705790,  5.954607 )     1.03835315
  WF centre and spread   53  (  2.807140,  2.684069,  5.954532 )     1.04003845
  WF centre and spread   54  (  2.806694,  2.896197,  2.006058 )     1.40757165
  WF centre and spread   55  (  2.807988,  2.907541,  1.984574 )     1.03555568
  WF centre and spread   56  (  2.807677,  2.929246,  1.984583 )     1.04041415
  Sum of centres and spreads (113.068839,114.825220,136.514401 )   249.51680578

   9600    -0.750E-02    11.0204089885      249.5168057820     877.73  <-- CONV
        O_D=      1.7287082 O_OD=     86.4519374 O_TOT=    249.5168058 <-- SPRD
 Delta: O_D= -0.3966637E-02 O_OD= -0.3531350E-02 O_TOT= -0.7497987E-02 <-- DLTA
 ------------------------------------------------------------------------------
 Cycle:   9800
  WF centre and spread    1  ( -0.000082, -0.000102,  0.000265 )     1.36526724
  WF centre and spread    2  ( -0.000241,  0.000130,  0.000051 )     1.36281040
  WF centre and spread    3  (  0.000031,  0.000500, -0.000005 )     1.35658656
  WF centre and spread    4  ( -0.000128, -0.000191,  3.969489 )     1.36510654
  WF centre and spread    5  ( -0.000081,  0.000129,  3.969640 )     1.36818914
  WF centre and spread    6  (  0.000171,  0.000861,  3.969697 )     1.35546705
  WF centre and spread    7  (  2.806797,  2.806922,  3.969459 )     1.36462222
  WF centre and spread    8  (  2.806951,  2.806959,  3.969816 )     1.36623573
  WF centre and spread    9  (  2.806854,  2.808083,  3.969695 )     1.35336258
  WF centre and spread   10  (  2.806995,  2.807008,  0.000399 )     1.36359800
  WF centre and spread   11  (  2.806860,  2.807110, -0.000030 )     1.36170494
  WF centre and spread   12  (  2.807021,  2.807619,  0.000095 )     1.35357997
  WF centre and spread   13  ( -0.058034, -0.194548,  0.146519 )    25.38641035
  WF centre and spread   14  (  0.047084,  0.028068, -0.009910 )    18.39931247
  WF centre and spread   15  (  1.186793,  0.848102,  4.809186 )    28.16754694
  WF centre and spread   16  (  0.067272, -0.106781,  3.974079 )    12.60799069
  WF centre and spread   17  (  3.962806,  4.152803,  4.533156 )    27.83338626
  WF centre and spread   18  (  2.726368,  2.414714,  4.047239 )    34.05741594
  WF centre and spread   19  (  2.482130,  2.455085, -0.265466 )    26.49330637
  WF centre and spread   20  (  1.458283,  4.257120, -0.049070 )    18.39657201
  WF centre and spread   21  (  1.403474,  4.210444, -0.080144 )     1.04350349
  WF centre and spread   22  (  1.417293,  4.194268, -0.070644 )     1.23160513
  WF centre and spread   23  (  1.417502,  4.196661, -0.071201 )     1.24136726
  WF centre and spread   24  (  1.403473,  1.403443,  0.084396 )     1.06017723
  WF centre and spread   25  (  1.416929,  1.418663,  0.070737 )     1.22225412
  WF centre and spread   26  (  1.419465,  1.417787,  0.070851 )     1.22253846
  WF centre and spread   27  (  4.210513,  1.403482,  3.886854 )     1.09636171
  WF centre and spread   28  (  4.189015,  1.424904,  3.898740 )     1.29805279
  WF centre and spread   29  (  4.188124,  1.422747,  3.899025 )     1.29151624
  WF centre and spread   30  (  4.210621,  4.210559,  4.051545 )     1.07046334
  WF centre and spread   31  (  4.193586,  4.191277,  4.040829 )     1.28186298
  WF centre and spread   32  (  4.193609,  4.192809,  4.040316 )     1.27716919
  WF centre and spread   33  (  4.210477,  1.403444,  0.083073 )     1.04442675
  WF centre and spread   34  (  4.198119,  1.415990,  0.071014 )     1.25128180
  WF centre and spread   35  (  4.195436,  1.415820,  0.070752 )     1.24466763
  WF centre and spread   36  (  4.210434,  4.210459, -0.078129 )     1.06201877
  WF centre and spread   37  (  4.196611,  4.197760, -0.070804 )     1.23057860
  WF centre and spread   38  (  4.197987,  4.198912, -0.070816 )     1.23215033
  WF centre and spread   39  (  1.403372,  4.210689,  4.049536 )     1.10263942
  WF centre and spread   40  (  1.431278,  4.181783,  4.040594 )     1.29604686
  WF centre and spread   41  (  1.432754,  4.181464,  4.040383 )     1.29616817
  WF centre and spread   42  (  1.403613,  1.403514,  3.885098 )     1.06791801
  WF centre and spread   43  (  1.420404,  1.421721,  3.898769 )     1.27515564
  WF centre and spread   44  (  1.422466,  1.421260,  3.899246 )     1.26443142
  WF centre and spread   45  (  0.000060, -0.089364,  2.023279 )     1.45273236
  WF centre and spread   46  ( -0.001298, -0.100049,  1.985054 )     1.03308588
  WF centre and spread   47  ( -0.000764, -0.121950,  1.984532 )     1.03522846
  WF centre and spread   48  ( -0.000371,  0.087762,  5.910737 )     1.45563492
  WF centre and spread   49  ( -0.001405,  0.101401,  5.954469 )     1.03439415
  WF centre and spread   50  ( -0.000938,  0.123777,  5.954599 )     1.04220575
  WF centre and spread   51  (  2.806468,  2.717462,  5.937618 )     1.40879304
  WF centre and spread   52  (  2.807462,  2.705725,  5.954621 )     1.03700894
  WF centre and spread   53  (  2.807096,  2.683983,  5.954536 )     1.03971206
  WF centre and spread   54  (  2.806673,  2.896210,  2.006390 )     1.40442689
  WF centre and spread   55  (  2.808033,  2.907529,  1.984552 )     1.03501560
  WF centre and spread   56  (  2.807700,  2.929266,  1.984585 )     1.03884587
  Sum of centres and spreads (112.939123,114.891201,136.279292 )   250.39991063

   9800     0.367E+00    22.3458353364      250.3999106281     895.96  <-- CONV
        O_D=      2.6632369 O_OD=     86.4005135 O_TOT=    250.3999106 <-- SPRD
 Delta: O_D=  0.3707414E+00 O_OD= -0.3419266E-02 O_TOT=  0.3673221E+00 <-- DLTA
 ------------------------------------------------------------------------------
 Cycle:  10000
  WF centre and spread    1  ( -0.000042, -0.000078,  0.000287 )     1.36531429
  WF centre and spread    2  ( -0.000213,  0.000100,  0.000028 )     1.36256802
  WF centre and spread    3  (  0.000006,  0.000567,  0.000001 )     1.35641602
  WF centre and spread    4  ( -0.000115, -0.000155,  3.969477 )     1.36522729
  WF centre and spread    5  ( -0.000045,  0.000096,  3.969655 )     1.36739100
  WF centre and spread    6  (  0.000138,  0.000918,  3.969711 )     1.35553477
  WF centre and spread    7  (  2.806835,  2.806941,  3.969455 )     1.36503419
  WF centre and spread    8  (  2.806978,  2.806939,  3.969822 )     1.36542733
  WF centre and spread    9  (  2.806838,  2.808142,  3.969721 )     1.35340023
  WF centre and spread   10  (  2.807028,  2.807052,  0.000406 )     1.36405182
  WF centre and spread   11  (  2.806894,  2.807079, -0.000035 )     1.36156362
  WF centre and spread   12  (  2.806993,  2.807685,  0.000099 )     1.35367495
  WF centre and spread   13  ( -0.052743, -0.199055,  0.125641 )    25.41090156
  WF centre and spread   14  (  0.037792,  0.001346,  0.006880 )    18.44650235
  WF centre and spread   15  (  1.179511,  0.844055,  4.886885 )    27.91611277
  WF centre and spread   16  (  0.067646, -0.105085,  3.973876 )    12.59145543
  WF centre and spread   17  (  4.017126,  4.115281,  4.548920 )    27.40757054
  WF centre and spread   18  (  2.706291,  2.401506,  4.090168 )    34.19401591
  WF centre and spread   19  (  2.517025,  2.447109, -0.229131 )    26.27589879
  WF centre and spread   20  (  1.448558,  4.242167, -0.051345 )    18.51586274
  WF centre and spread   21  (  1.403476,  4.210454, -0.080223 )     1.04293838
  WF centre and spread   22  (  1.417458,  4.194195, -0.070685 )     1.23151541
  WF centre and spread   23  (  1.417673,  4.196587, -0.071231 )     1.24151075
  WF centre and spread   24  (  1.403497,  1.403434,  0.084334 )     1.05783197
  WF centre and spread   25  (  1.417151,  1.418819,  0.070710 )     1.22337130
  WF centre and spread   26  (  1.419608,  1.417943,  0.070866 )     1.22361807
  WF centre and spread   27  (  4.210513,  1.403497,  3.886811 )     1.09300940
  WF centre and spread   28  (  4.188844,  1.425075,  3.898730 )     1.29926467
  WF centre and spread   29  (  4.187983,  1.422991,  3.899022 )     1.29240485
  WF centre and spread   30  (  4.210608,  4.210546,  4.051505 )     1.07008011
  WF centre and spread   31  (  4.193394,  4.191067,  4.040820 )     1.28343277
  WF centre and spread   32  (  4.193501,  4.192711,  4.040322 )     1.27859875
  WF centre and spread   33  (  4.210456,  1.403434,  0.083044 )     1.04410130
  WF centre and spread   34  (  4.197991,  1.416197,  0.070992 )     1.25145443
  WF centre and spread   35  (  4.195218,  1.416034,  0.070773 )     1.24464056
  WF centre and spread   36  (  4.210432,  4.210466, -0.078066 )     1.06037980
  WF centre and spread   37  (  4.196375,  4.197564, -0.070834 )     1.23190824
  WF centre and spread   38  (  4.197774,  4.198693, -0.070833 )     1.23387965
  WF centre and spread   39  (  1.403362,  4.210678,  4.049596 )     1.09912466
  WF centre and spread   40  (  1.431490,  4.181640,  4.040601 )     1.29694704
  WF centre and spread   41  (  1.433049,  4.181268,  4.040394 )     1.29741188
  WF centre and spread   42  (  1.403593,  1.403515,  3.885011 )     1.06773672
  WF centre and spread   43  (  1.420732,  1.422025,  3.898766 )     1.27598388
  WF centre and spread   44  (  1.422602,  1.421535,  3.899236 )     1.26546380
  WF centre and spread   45  (  0.000048, -0.089382,  2.023437 )     1.45227633
  WF centre and spread   46  ( -0.001282, -0.100095,  1.985070 )     1.03263078
  WF centre and spread   47  ( -0.000733, -0.121943,  1.984540 )     1.03455269
  WF centre and spread   48  ( -0.000401,  0.087776,  5.910774 )     1.45141090
  WF centre and spread   49  ( -0.001389,  0.101322,  5.954445 )     1.03469828
  WF centre and spread   50  ( -0.000920,  0.123756,  5.954587 )     1.04088888
  WF centre and spread   51  (  2.806493,  2.717418,  5.937535 )     1.40678141
  WF centre and spread   52  (  2.807454,  2.705775,  5.954607 )     1.03707094
  WF centre and spread   53  (  2.807078,  2.683947,  5.954505 )     1.03995176
  WF centre and spread   54  (  2.806658,  2.896215,  2.006387 )     1.40305957
  WF centre and spread   55  (  2.808007,  2.907565,  1.984581 )     1.03464951
  WF centre and spread   56  (  2.807667,  2.929284,  1.984632 )     1.03807899
  Sum of centres and spreads (112.987963,114.784620,136.445285 )   249.80658207

  10000    -0.246E+00    15.7031140225      249.8065820685     914.08  <-- CONV
        O_D=      2.0048163 O_OD=     86.4656055 O_TOT=    249.8065821 <-- SPRD
 Delta: O_D= -0.2461974E+00 O_OD=  0.5461147E-03 O_TOT= -0.2456513E+00 <-- DLTA
 ------------------------------------------------------------------------------
 Final State
  WF centre and spread    1  ( -0.000042, -0.000078,  0.000287 )     1.36531429
  WF centre and spread    2  ( -0.000213,  0.000100,  0.000028 )     1.36256802
  WF centre and spread    3  (  0.000006,  0.000567,  0.000001 )     1.35641602
  WF centre and spread    4  ( -0.000115, -0.000155,  3.969477 )     1.36522729
  WF centre and spread    5  ( -0.000045,  0.000096,  3.969655 )     1.36739100
  WF centre and spread    6  (  0.000138,  0.000918,  3.969711 )     1.35553477
  WF centre and spread    7  (  2.806835,  2.806941,  3.969455 )     1.36503419
  WF centre and spread    8  (  2.806978,  2.806939,  3.969822 )     1.36542733
  WF centre and spread    9  (  2.806838,  2.808142,  3.969721 )     1.35340023
  WF centre and spread   10  (  2.807028,  2.807052,  0.000406 )     1.36405182
  WF centre and spread   11  (  2.806894,  2.807079, -0.000035 )     1.36156362
  WF centre and spread   12  (  2.806993,  2.807685,  0.000099 )     1.35367495
  WF centre and spread   13  ( -0.052743, -0.199055,  0.125641 )    25.41090156
  WF centre and spread   14  (  0.037792,  0.001346,  0.006880 )    18.44650235
  WF centre and spread   15  (  1.179511,  0.844055,  4.886885 )    27.91611277
  WF centre and spread   16  (  0.067646, -0.105085,  3.973876 )    12.59145543
  WF centre and spread   17  (  4.017126,  4.115281,  4.548920 )    27.40757054
  WF centre and spread   18  (  2.706291,  2.401506,  4.090168 )    34.19401591
  WF centre and spread   19  (  2.517025,  2.447109, -0.229131 )    26.27589879
  WF centre and spread   20  (  1.448558,  4.242167, -0.051345 )    18.51586274
  WF centre and spread   21  (  1.403476,  4.210454, -0.080223 )     1.04293838
  WF centre and spread   22  (  1.417458,  4.194195, -0.070685 )     1.23151541
  WF centre and spread   23  (  1.417673,  4.196587, -0.071231 )     1.24151075
  WF centre and spread   24  (  1.403497,  1.403434,  0.084334 )     1.05783197
  WF centre and spread   25  (  1.417151,  1.418819,  0.070710 )     1.22337130
  WF centre and spread   26  (  1.419608,  1.417943,  0.070866 )     1.22361807
  WF centre and spread   27  (  4.210513,  1.403497,  3.886811 )     1.09300940
  WF centre and spread   28  (  4.188844,  1.425075,  3.898730 )     1.29926467
  WF centre and spread   29  (  4.187983,  1.422991,  3.899022 )     1.29240485
  WF centre and spread   30  (  4.210608,  4.210546,  4.051505 )     1.07008011
  WF centre and spread   31  (  4.193394,  4.191067,  4.040820 )     1.28343277
  WF centre and spread   32  (  4.193501,  4.192711,  4.040322 )     1.27859875
  WF centre and spread   33  (  4.210456,  1.403434,  0.083044 )     1.04410130
  WF centre and spread   34  (  4.197991,  1.416197,  0.070992 )     1.25145443
  WF centre and spread   35  (  4.195218,  1.416034,  0.070773 )     1.24464056
  WF centre and spread   36  (  4.210432,  4.210466, -0.078066 )     1.06037980
  WF centre and spread   37  (  4.196375,  4.197564, -0.070834 )     1.23190824
  WF centre and spread   38  (  4.197774,  4.198693, -0.070833 )     1.23387965
  WF centre and spread   39  (  1.403362,  4.210678,  4.049596 )     1.09912466
  WF centre and spread   40  (  1.431490,  4.181640,  4.040601 )     1.29694704
  WF centre and spread   41  (  1.433049,  4.181268,  4.040394 )     1.29741188
  WF centre and spread   42  (  1.403593,  1.403515,  3.885011 )     1.06773672
  WF centre and spread   43  (  1.420732,  1.422025,  3.898766 )     1.27598388
  WF centre and spread   44  (  1.422602,  1.421535,  3.899236 )     1.26546380
  WF centre and spread   45  (  0.000048, -0.089382,  2.023437 )     1.45227633
  WF centre and spread   46  ( -0.001282, -0.100095,  1.985070 )     1.03263078
  WF centre and spread   47  ( -0.000733, -0.121943,  1.984540 )     1.03455269
  WF centre and spread   48  ( -0.000401,  0.087776,  5.910774 )     1.45141090
  WF centre and spread   49  ( -0.001389,  0.101322,  5.954445 )     1.03469828
  WF centre and spread   50  ( -0.000920,  0.123756,  5.954587 )     1.04088888
  WF centre and spread   51  (  2.806493,  2.717418,  5.937535 )     1.40678141
  WF centre and spread   52  (  2.807454,  2.705775,  5.954607 )     1.03707094
  WF centre and spread   53  (  2.807078,  2.683947,  5.954505 )     1.03995176
  WF centre and spread   54  (  2.806658,  2.896215,  2.006387 )     1.40305957
  WF centre and spread   55  (  2.808007,  2.907565,  1.984581 )     1.03464951
  WF centre and spread   56  (  2.807667,  2.929284,  1.984632 )     1.03807899
  Sum of centres and spreads (112.987963,114.784620,136.445285 )   249.80658207

         Spreads (Ang^2)       Omega I      =   161.336160217
        ================       Omega D      =     2.004816313
                               Omega OD     =    86.465605539
    Final Spread (Ang^2)       Omega Total  =   249.806582068
 ------------------------------------------------------------------------------

 Writing checkpoint file smo.chk... done

 *---------------------------------------------------------------------------*
 |                               PLOTTING                                    |
 *---------------------------------------------------------------------------*


 Calculating interpolated band-structure

 Time to calculate interpolated band structure       2.116 (sec)

  
  Omega Invariant:   1-s^2 =   161.336160215 (Ang^2)
                   -2log s =  1288.471884299 (Ang^2)
                    acos^2 =   278.134876320 (Ang^2)

 *===========================================================================*
 |                             TIMING INFORMATION                            |
 *===========================================================================*
 |    Tag                                                Ncalls      Time (s)|
 |---------------------------------------------------------------------------|
 |kmesh: get                                        :         1         0.114|
 |overlap: read                                     :         1         4.557|
 |wann: main                                        :         1       912.799|
 |plot: main                                        :         1         6.216|
 *---------------------------------------------------------------------------*
 All done: wannier90 exiting
