
     Program PWSCF v.7.5 starts on 29Nov2025 at 20:36:23 
        Git branch: develop
        Last git commit: 70e07caa2a5fab3dd9374bc01196f67e923fc5ea
        Last git commit date: Mon Aug 18 10:06:47 2025 +0000
        Last git commit subject: Merge branch 'stressed-by-optional-variables' into

     This program is part of the open-source Quantum ESPRESSO suite
     for quantum simulation of materials; please cite
         "P. Giannozzi et al., J. Phys.:Condens. Matter 21 395502 (2009);
         "P. Giannozzi et al., J. Phys.:Condens. Matter 29 465901 (2017);
         "P. Giannozzi et al., J. Chem. Phys. 152 154105 (2020);
          URL http://www.quantum-espresso.org", 
     in publications or presentations arising from this work. More details at
     http://www.quantum-espresso.org/quote

     Parallel version (MPI), running on   128 processors

     MPI processes distributed on     1 nodes
     986164 MiB available memory on the printing compute node when the environment starts

     Waiting for input...
     Reading input from standard input

     Current dimensions of program PWSCF are:
     Max number of different atomic species (ntypx) = 10
     Max number of k-points (npk) =  40000
     Max angular momentum in pseudopotentials (lmaxx) =  4
     file Sr.pz-spn-kjpaw_psl.1.0.0.UPF: wavefunction(s)  4P renormalized
     file Mo.pz-spn-kjpaw_psl.1.0.0.UPF: wavefunction(s)  4S 4D renormalized
     file O.pz-n-kjpaw_psl.1.0.0.UPF: wavefunction(s)  2S 2P renormalized

     Atomic positions and unit cell read from directory:
     ./out/smo.save/

     Found identity + (  0.5000 -0.5000 -0.5000) symmetry
     This is a supercell, fractional translations are disabled
     Message from routine setup:
     using ibrav=0 with symmetry is DISCOURAGED, use correct ibrav instead

     K-points division:     npool     =     128
     Subspace diagonalization in iterative solution of the eigenvalue problem:
     a serial algorithm will be used

     Message from routine divide_et_impera:
     suboptimal parallelization: some nodes have no k-points

     G-vector sticks info
     --------------------
     sticks:   dense  smooth     PW     G-vecs:    dense   smooth      PW
     Sum        5385    2701    749               419469   148351   21815

     Using Slab Decomposition



     bravais-lattice index     =            0
     lattice parameter (alat)  =      10.6088  a.u.
     unit-cell volume          =    1688.5722 (a.u.)^3
     number of atoms/cell      =           20
     number of atomic types    =            3
     number of electrons       =       168.00
     number of Kohn-Sham states=          101
     kinetic-energy cutoff     =      75.0000  Ry
     charge density cutoff     =     600.0000  Ry
     Exchange-correlation= SLA  PZ   NOGX NOGC
                           (   1   1   0   0   0   0   0)

     celldm(1)=  10.608847  celldm(2)=   0.000000  celldm(3)=   0.000000
     celldm(4)=   0.000000  celldm(5)=   0.000000  celldm(6)=   0.000000

     crystal axes: (cart. coord. in units of alat)
               a(1) = (   1.000000   0.000000   0.000000 )  
               a(2) = (   0.000000   1.000000   0.000000 )  
               a(3) = (   0.000000   0.000000   1.414214 )  

     reciprocal axes: (cart. coord. in units 2 pi/alat)
               b(1) = (  1.000000  0.000000  0.000000 )  
               b(2) = (  0.000000  1.000000  0.000000 )  
               b(3) = (  0.000000  0.000000  0.707107 )  


     PseudoPot. # 1 for Sr read from file:
     ./pseudo/Sr.pz-spn-kjpaw_psl.1.0.0.UPF
     MD5 check sum: 14b1f655f5497b386c4f305353cf4fd4
     Pseudo is Projector augmented-wave + core cor, Zval = 10.0
     Generated using 'atomic' code by A. Dal Corso  v.7.3
     Shape of augmentation charge: PSQ
     Using radial grid of 1221 points,  6 beta functions with: 
                l(1) =   0
                l(2) =   0
                l(3) =   1
                l(4) =   1
                l(5) =   2
                l(6) =   2
     Q(r) pseudized with 0 coefficients 


     PseudoPot. # 2 for Mo read from file:
     ./pseudo/Mo.pz-spn-kjpaw_psl.1.0.0.UPF
     MD5 check sum: 2e12aff744a4785a34e7548d4bec1d21
     Pseudo is Projector augmented-wave + core cor, Zval = 14.0
     Generated using 'atomic' code by A. Dal Corso  v.7.3
     Shape of augmentation charge: PSQ
     Using radial grid of 1229 points,  6 beta functions with: 
                l(1) =   0
                l(2) =   0
                l(3) =   1
                l(4) =   1
                l(5) =   2
                l(6) =   2
     Q(r) pseudized with 0 coefficients 


     PseudoPot. # 3 for O  read from file:
     ./pseudo/O.pz-n-kjpaw_psl.1.0.0.UPF
     MD5 check sum: 71a951e35f67dc87891058fc5642ed8f
     Pseudo is Projector augmented-wave + core cor, Zval =  6.0
     Generated using 'atomic' code by A. Dal Corso  v.7.3
     Shape of augmentation charge: PSQ
     Using radial grid of 1095 points,  4 beta functions with: 
                l(1) =   0
                l(2) =   0
                l(3) =   1
                l(4) =   1
     Q(r) pseudized with 0 coefficients 


     atomic species   valence    mass     pseudopotential
     Sr               10.00    87.62000     Sr( 1.00)
     Mo               14.00    95.95000     Mo( 1.00)
     O                 6.00    15.99900     O ( 1.00)

      4 Sym. Ops., with inversion, found


                                    s                        frac. trans.

      isym =  1     identity                                     

 cryst.   s( 1) = (     1          0          0      )
                  (     0          1          0      )
                  (     0          0          1      )

 cart.    s( 1) = (  1.0000000  0.0000000  0.0000000 )
                  (  0.0000000  1.0000000  0.0000000 )
                  (  0.0000000  0.0000000  1.0000000 )


      isym =  2     180 deg rotation - cart. axis [1,0,0]        

 cryst.   s( 2) = (     1          0          0      )
                  (     0         -1          0      )
                  (     0          0         -1      )

 cart.    s( 2) = (  1.0000000  0.0000000  0.0000000 )
                  (  0.0000000 -1.0000000  0.0000000 )
                  (  0.0000000  0.0000000 -1.0000000 )


      isym =  3     inversion                                    

 cryst.   s( 3) = (    -1          0          0      )
                  (     0         -1          0      )
                  (     0          0         -1      )

 cart.    s( 3) = ( -1.0000000  0.0000000  0.0000000 )
                  (  0.0000000 -1.0000000  0.0000000 )
                  (  0.0000000  0.0000000 -1.0000000 )


      isym =  4     inv. 180 deg rotation - cart. axis [1,0,0]   

 cryst.   s( 4) = (    -1          0          0      )
                  (     0          1          0      )
                  (     0          0          1      )

 cart.    s( 4) = ( -1.0000000  0.0000000  0.0000000 )
                  (  0.0000000  1.0000000  0.0000000 )
                  (  0.0000000  0.0000000  1.0000000 )


   Cartesian axes

     site n.     atom                  positions (alat units)
         1        Sr     tau(   1) = (   0.0000000   0.5000000   0.3535535  )
         2        Sr     tau(   2) = (   0.0000000   0.5000000   1.0606604  )
         3        Sr     tau(   3) = (   0.5000000   0.0000000   1.0606604  )
         4        Sr     tau(   4) = (   0.5000000   0.0000000   0.3535535  )
         5        Mo     tau(   5) = (   0.0000000   0.0000000   0.0000000  )
         6        Mo     tau(   6) = (   0.0000000   0.0000000   0.7071069  )
         7        Mo     tau(   7) = (   0.5000000   0.5000000   0.7071069  )
         8        Mo     tau(   8) = (   0.5000000   0.5000000   0.0000000  )
         9        O      tau(   9) = (   0.2500000   0.7500000  -0.0062975  )
        10        O      tau(  10) = (   0.2500000   0.2500000   0.0062975  )
        11        O      tau(  11) = (   0.7500000   0.2500000   0.7008094  )
        12        O      tau(  12) = (   0.7500000   0.7500000   0.7134044  )
        13        O      tau(  13) = (   0.7500000   0.2500000   0.0062975  )
        14        O      tau(  14) = (   0.7500000   0.7500000  -0.0062975  )
        15        O      tau(  15) = (   0.2500000   0.7500000   0.7134044  )
        16        O      tau(  16) = (   0.2500000   0.2500000   0.7008094  )
        17        O      tau(  17) = (   0.0000000  -0.0089060   0.3535535  )
        18        O      tau(  18) = (   0.0000000   0.0089060   1.0606604  )
        19        O      tau(  19) = (   0.5000000   0.4910940   1.0606604  )
        20        O      tau(  20) = (   0.5000000   0.5089060   0.3535535  )

   Crystallographic axes

     site n.     atom                  positions (cryst. coord.)
         1        Sr     tau(   1) = (  0.0000000  0.5000000  0.2500000  )
         2        Sr     tau(   2) = (  0.0000000  0.5000000  0.7500000  )
         3        Sr     tau(   3) = (  0.5000000  0.0000000  0.7500000  )
         4        Sr     tau(   4) = (  0.5000000  0.0000000  0.2500000  )
         5        Mo     tau(   5) = (  0.0000000  0.0000000  0.0000000  )
         6        Mo     tau(   6) = (  0.0000000  0.0000000  0.5000000  )
         7        Mo     tau(   7) = (  0.5000000  0.5000000  0.5000000  )
         8        Mo     tau(   8) = (  0.5000000  0.5000000  0.0000000  )
         9        O      tau(   9) = (  0.2500000  0.7500000 -0.0044530  )
        10        O      tau(  10) = (  0.2500000  0.2500000  0.0044530  )
        11        O      tau(  11) = (  0.7500000  0.2500000  0.4955470  )
        12        O      tau(  12) = (  0.7500000  0.7500000  0.5044530  )
        13        O      tau(  13) = (  0.7500000  0.2500000  0.0044530  )
        14        O      tau(  14) = (  0.7500000  0.7500000 -0.0044530  )
        15        O      tau(  15) = (  0.2500000  0.7500000  0.5044530  )
        16        O      tau(  16) = (  0.2500000  0.2500000  0.4955470  )
        17        O      tau(  17) = (  0.0000000 -0.0089060  0.2500000  )
        18        O      tau(  18) = (  0.0000000  0.0089060  0.7500000  )
        19        O      tau(  19) = (  0.5000000  0.4910940  0.7500000  )
        20        O      tau(  20) = (  0.5000000  0.5089060  0.2500000  )

     number of k points=    71  Marzari-Vanderbilt smearing, width (Ry)=  0.0147
                       cart. coord. in units 2pi/alat
        k(    1) = (   0.0000000   0.0000000   0.0000000), wk =   0.0281690
        k(    2) = (   0.0000000   0.0500000   0.0000000), wk =   0.0281690
        k(    3) = (   0.0000000   0.1000000   0.0000000), wk =   0.0281690
        k(    4) = (   0.0000000   0.1500000   0.0000000), wk =   0.0281690
        k(    5) = (   0.0000000   0.2000000   0.0000000), wk =   0.0281690
        k(    6) = (   0.0000000   0.2500000   0.0000000), wk =   0.0281690
        k(    7) = (   0.0000000   0.3000000   0.0000000), wk =   0.0281690
        k(    8) = (   0.0000000   0.3500000   0.0000000), wk =   0.0281690
        k(    9) = (   0.0000000   0.4000000   0.0000000), wk =   0.0281690
        k(   10) = (   0.0000000   0.4500000   0.0000000), wk =   0.0281690
        k(   11) = (   0.0000000   0.5000000   0.0000000), wk =   0.0281690
        k(   12) = (   0.0500000   0.5000000   0.0000000), wk =   0.0281690
        k(   13) = (   0.1000000   0.5000000   0.0000000), wk =   0.0281690
        k(   14) = (   0.1500000   0.5000000   0.0000000), wk =   0.0281690
        k(   15) = (   0.2000000   0.5000000   0.0000000), wk =   0.0281690
        k(   16) = (   0.2500000   0.5000000   0.0000000), wk =   0.0281690
        k(   17) = (   0.3000000   0.5000000   0.0000000), wk =   0.0281690
        k(   18) = (   0.3500000   0.5000000   0.0000000), wk =   0.0281690
        k(   19) = (   0.4000000   0.5000000   0.0000000), wk =   0.0281690
        k(   20) = (   0.4500000   0.5000000   0.0000000), wk =   0.0281690
        k(   21) = (   0.5000000   0.5000000   0.0000000), wk =   0.0281690
        k(   22) = (   0.4500000   0.4500000   0.0000000), wk =   0.0281690
        k(   23) = (   0.4000000   0.4000000   0.0000000), wk =   0.0281690
        k(   24) = (   0.3500000   0.3500000   0.0000000), wk =   0.0281690
        k(   25) = (   0.3000000   0.3000000   0.0000000), wk =   0.0281690
        k(   26) = (   0.2500000   0.2500000   0.0000000), wk =   0.0281690
        k(   27) = (   0.2000000   0.2000000   0.0000000), wk =   0.0281690
        k(   28) = (   0.1500000   0.1500000   0.0000000), wk =   0.0281690
        k(   29) = (   0.1000000   0.1000000   0.0000000), wk =   0.0281690
        k(   30) = (   0.0500000   0.0500000   0.0000000), wk =   0.0281690
        k(   31) = (   0.0000000   0.0000000   0.0000000), wk =   0.0281690
        k(   32) = (   0.0000000   0.0000000   0.0353553), wk =   0.0281690
        k(   33) = (   0.0000000   0.0000000   0.0707107), wk =   0.0281690
        k(   34) = (   0.0000000   0.0000000   0.1060660), wk =   0.0281690
        k(   35) = (   0.0000000   0.0000000   0.1414213), wk =   0.0281690
        k(   36) = (   0.0000000   0.0000000   0.1767767), wk =   0.0281690
        k(   37) = (   0.0000000   0.0000000   0.2121320), wk =   0.0281690
        k(   38) = (   0.0000000   0.0000000   0.2474873), wk =   0.0281690
        k(   39) = (   0.0000000   0.0000000   0.2828427), wk =   0.0281690
        k(   40) = (   0.0000000   0.0000000   0.3181980), wk =   0.0281690
        k(   41) = (   0.0000000   0.0000000   0.3535533), wk =   0.0281690
        k(   42) = (   0.0000000   0.0500000   0.3535533), wk =   0.0281690
        k(   43) = (   0.0000000   0.1000000   0.3535533), wk =   0.0281690
        k(   44) = (   0.0000000   0.1500000   0.3535533), wk =   0.0281690
        k(   45) = (   0.0000000   0.2000000   0.3535533), wk =   0.0281690
        k(   46) = (   0.0000000   0.2500000   0.3535533), wk =   0.0281690
        k(   47) = (   0.0000000   0.3000000   0.3535533), wk =   0.0281690
        k(   48) = (   0.0000000   0.3500000   0.3535533), wk =   0.0281690
        k(   49) = (   0.0000000   0.4000000   0.3535533), wk =   0.0281690
        k(   50) = (   0.0000000   0.4500000   0.3535533), wk =   0.0281690
        k(   51) = (   0.0000000   0.5000000   0.3535533), wk =   0.0281690
        k(   52) = (   0.0500000   0.5000000   0.3535533), wk =   0.0281690
        k(   53) = (   0.1000000   0.5000000   0.3535533), wk =   0.0281690
        k(   54) = (   0.1500000   0.5000000   0.3535533), wk =   0.0281690
        k(   55) = (   0.2000000   0.5000000   0.3535533), wk =   0.0281690
        k(   56) = (   0.2500000   0.5000000   0.3535533), wk =   0.0281690
        k(   57) = (   0.3000000   0.5000000   0.3535533), wk =   0.0281690
        k(   58) = (   0.3500000   0.5000000   0.3535533), wk =   0.0281690
        k(   59) = (   0.4000000   0.5000000   0.3535533), wk =   0.0281690
        k(   60) = (   0.4500000   0.5000000   0.3535533), wk =   0.0281690
        k(   61) = (   0.5000000   0.5000000   0.3535533), wk =   0.0281690
        k(   62) = (   0.4500000   0.4500000   0.3535533), wk =   0.0281690
        k(   63) = (   0.4000000   0.4000000   0.3535533), wk =   0.0281690
        k(   64) = (   0.3500000   0.3500000   0.3535533), wk =   0.0281690
        k(   65) = (   0.3000000   0.3000000   0.3535533), wk =   0.0281690
        k(   66) = (   0.2500000   0.2500000   0.3535533), wk =   0.0281690
        k(   67) = (   0.2000000   0.2000000   0.3535533), wk =   0.0281690
        k(   68) = (   0.1500000   0.1500000   0.3535533), wk =   0.0281690
        k(   69) = (   0.1000000   0.1000000   0.3535533), wk =   0.0281690
        k(   70) = (   0.0500000   0.0500000   0.3535533), wk =   0.0281690
        k(   71) = (   0.0000000   0.0000000   0.3535533), wk =   0.0281690

                       cryst. coord.
        k(    1) = (   0.0000000   0.0000000   0.0000000), wk =   0.0281690
        k(    2) = (   0.0000000   0.0500000   0.0000000), wk =   0.0281690
        k(    3) = (   0.0000000   0.1000000   0.0000000), wk =   0.0281690
        k(    4) = (   0.0000000   0.1500000   0.0000000), wk =   0.0281690
        k(    5) = (   0.0000000   0.2000000   0.0000000), wk =   0.0281690
        k(    6) = (   0.0000000   0.2500000   0.0000000), wk =   0.0281690
        k(    7) = (   0.0000000   0.3000000   0.0000000), wk =   0.0281690
        k(    8) = (   0.0000000   0.3500000   0.0000000), wk =   0.0281690
        k(    9) = (   0.0000000   0.4000000   0.0000000), wk =   0.0281690
        k(   10) = (   0.0000000   0.4500000   0.0000000), wk =   0.0281690
        k(   11) = (   0.0000000   0.5000000   0.0000000), wk =   0.0281690
        k(   12) = (   0.0500000   0.5000000   0.0000000), wk =   0.0281690
        k(   13) = (   0.1000000   0.5000000   0.0000000), wk =   0.0281690
        k(   14) = (   0.1500000   0.5000000   0.0000000), wk =   0.0281690
        k(   15) = (   0.2000000   0.5000000   0.0000000), wk =   0.0281690
        k(   16) = (   0.2500000   0.5000000   0.0000000), wk =   0.0281690
        k(   17) = (   0.3000000   0.5000000   0.0000000), wk =   0.0281690
        k(   18) = (   0.3500000   0.5000000   0.0000000), wk =   0.0281690
        k(   19) = (   0.4000000   0.5000000   0.0000000), wk =   0.0281690
        k(   20) = (   0.4500000   0.5000000   0.0000000), wk =   0.0281690
        k(   21) = (   0.5000000   0.5000000   0.0000000), wk =   0.0281690
        k(   22) = (   0.4500000   0.4500000   0.0000000), wk =   0.0281690
        k(   23) = (   0.4000000   0.4000000   0.0000000), wk =   0.0281690
        k(   24) = (   0.3500000   0.3500000   0.0000000), wk =   0.0281690
        k(   25) = (   0.3000000   0.3000000   0.0000000), wk =   0.0281690
        k(   26) = (   0.2500000   0.2500000   0.0000000), wk =   0.0281690
        k(   27) = (   0.2000000   0.2000000   0.0000000), wk =   0.0281690
        k(   28) = (   0.1500000   0.1500000   0.0000000), wk =   0.0281690
        k(   29) = (   0.1000000   0.1000000   0.0000000), wk =   0.0281690
        k(   30) = (   0.0500000   0.0500000   0.0000000), wk =   0.0281690
        k(   31) = (   0.0000000   0.0000000   0.0000000), wk =   0.0281690
        k(   32) = (   0.0000000   0.0000000   0.0500000), wk =   0.0281690
        k(   33) = (   0.0000000   0.0000000   0.1000000), wk =   0.0281690
        k(   34) = (   0.0000000   0.0000000   0.1500000), wk =   0.0281690
        k(   35) = (   0.0000000   0.0000000   0.2000000), wk =   0.0281690
        k(   36) = (   0.0000000   0.0000000   0.2500000), wk =   0.0281690
        k(   37) = (   0.0000000   0.0000000   0.3000000), wk =   0.0281690
        k(   38) = (   0.0000000   0.0000000   0.3500000), wk =   0.0281690
        k(   39) = (   0.0000000   0.0000000   0.4000000), wk =   0.0281690
        k(   40) = (   0.0000000   0.0000000   0.4500000), wk =   0.0281690
        k(   41) = (   0.0000000   0.0000000   0.5000000), wk =   0.0281690
        k(   42) = (   0.0000000   0.0500000   0.5000000), wk =   0.0281690
        k(   43) = (   0.0000000   0.1000000   0.5000000), wk =   0.0281690
        k(   44) = (   0.0000000   0.1500000   0.5000000), wk =   0.0281690
        k(   45) = (   0.0000000   0.2000000   0.5000000), wk =   0.0281690
        k(   46) = (   0.0000000   0.2500000   0.5000000), wk =   0.0281690
        k(   47) = (   0.0000000   0.3000000   0.5000000), wk =   0.0281690
        k(   48) = (   0.0000000   0.3500000   0.5000000), wk =   0.0281690
        k(   49) = (   0.0000000   0.4000000   0.5000000), wk =   0.0281690
        k(   50) = (   0.0000000   0.4500000   0.5000000), wk =   0.0281690
        k(   51) = (   0.0000000   0.5000000   0.5000000), wk =   0.0281690
        k(   52) = (   0.0500000   0.5000000   0.5000000), wk =   0.0281690
        k(   53) = (   0.1000000   0.5000000   0.5000000), wk =   0.0281690
        k(   54) = (   0.1500000   0.5000000   0.5000000), wk =   0.0281690
        k(   55) = (   0.2000000   0.5000000   0.5000000), wk =   0.0281690
        k(   56) = (   0.2500000   0.5000000   0.5000000), wk =   0.0281690
        k(   57) = (   0.3000000   0.5000000   0.5000000), wk =   0.0281690
        k(   58) = (   0.3500000   0.5000000   0.5000000), wk =   0.0281690
        k(   59) = (   0.4000000   0.5000000   0.5000000), wk =   0.0281690
        k(   60) = (   0.4500000   0.5000000   0.5000000), wk =   0.0281690
        k(   61) = (   0.5000000   0.5000000   0.5000000), wk =   0.0281690
        k(   62) = (   0.4500000   0.4500000   0.5000000), wk =   0.0281690
        k(   63) = (   0.4000000   0.4000000   0.5000000), wk =   0.0281690
        k(   64) = (   0.3500000   0.3500000   0.5000000), wk =   0.0281690
        k(   65) = (   0.3000000   0.3000000   0.5000000), wk =   0.0281690
        k(   66) = (   0.2500000   0.2500000   0.5000000), wk =   0.0281690
        k(   67) = (   0.2000000   0.2000000   0.5000000), wk =   0.0281690
        k(   68) = (   0.1500000   0.1500000   0.5000000), wk =   0.0281690
        k(   69) = (   0.1000000   0.1000000   0.5000000), wk =   0.0281690
        k(   70) = (   0.0500000   0.0500000   0.5000000), wk =   0.0281690
        k(   71) = (   0.0000000   0.0000000   0.5000000), wk =   0.0281690

     Dense  grid:   419469 G-vectors     FFT dimensions: (  90,  90, 120)

     Smooth grid:   148351 G-vectors     FFT dimensions: (  60,  60,  90)

     Dynamical RAM for                 wfc:      28.54 MB

     Dynamical RAM for     wfc (w. buffer):      28.54 MB

     Dynamical RAM for           str. fact:      19.20 MB

     Dynamical RAM for           local pot:       0.00 MB

     Dynamical RAM for          nlocal pot:      67.83 MB

     Dynamical RAM for                qrad:       5.90 MB

     Dynamical RAM for          rho,v,vnew:      41.45 MB

     Dynamical RAM for           G-vectors:      25.13 MB

     Dynamical RAM for          h,s,v(r/c):       1.87 MB

     Dynamical RAM for          <psi|beta>:       0.37 MB

     Dynamical RAM for                 psi:      57.09 MB

     Dynamical RAM for                hpsi:      57.09 MB

     Dynamical RAM for                spsi:      57.09 MB

     Dynamical RAM for      wfcinit/wfcrot:      57.32 MB

     Dynamical RAM for           addusdens:      16.25 MB

     Estimated static dynamical RAM per process >     250.73 MB

     Estimated max dynamical RAM per process >     424.23 MB

     Estimated total dynamical RAM >      53.03 GB

     The potential is recalculated from file :
     ./out/smo.save/charge-density

     Starting wfcs are  120 randomized atomic wfcs
     Checking if some PAW data can be deallocated... 
       PAW data deallocated on  100 nodes for type:  1
       PAW data deallocated on  100 nodes for type:  2
       PAW data deallocated on   56 nodes for type:  3

     Band Structure Calculation
     Davidson diagonalization with overlap

     Computing kpt #:     1  of     1 on this pool
     c_bands:  2 eigenvalues not converged
     total cpu time spent up to now is      112.9 secs

     ethr =  2.38E-13,  avg # of iterations =118.7

     total cpu time spent up to now is      122.9 secs

     End of band structure calculation

          k = 0.0000 0.0000 0.0000 ( 18577 PWs)   bands (ev):

   -48.9285 -48.9271 -48.9259 -48.9246 -23.2566 -23.2380 -23.2337 -23.2331
   -23.2295 -23.2290 -23.1641 -23.1573 -23.1554 -23.1549 -23.1518 -23.1513
   -22.1361 -22.1039 -22.1007 -22.0851  -6.9701  -6.7320  -6.2640  -6.0459
    -6.0419  -6.0045  -5.7572  -5.7533  -5.3092  -5.2805  -5.2794  -5.2754
    -4.4076  -4.4068  -4.4023  -4.1584  -4.1549  -4.1534  -4.1218  -4.1202
    -4.0670  -3.7615  -3.7578  -3.6526   5.1586   5.1732   5.1754   5.2716
     5.3636   5.4098   5.6000   6.2323   6.2323   6.2362   7.1730   7.1733
     7.6197   7.6200   7.7443   7.7462   7.7852   7.7881   7.7891   7.8444
     8.3504   8.7290   8.7362   8.7467   9.1116   9.1125   9.1158   9.4756
     9.4770   9.7617   9.7637   9.7654  10.1938  10.2590  10.2624  10.2683
    11.6597  11.6636  11.6685  11.8700  14.3578  14.3701  14.3906  14.3990
    15.1662  15.3517  15.4038  15.4676  15.5001  15.5345  15.5769  15.6625
    15.6698  15.8916  16.6339  17.0713  17.0733

          k = 0.0000 0.0500 0.0000 ( 18595 PWs)   bands (ev):

   -48.9284 -48.9271 -48.9259 -48.9246 -23.2564 -23.2381 -23.2334 -23.2327
   -23.2291 -23.2285 -23.1640 -23.1573 -23.1561 -23.1554 -23.1523 -23.1518
   -22.1357 -22.1038 -22.1007 -22.0853  -6.9623  -6.7312  -6.2751  -6.0449
    -6.0399  -6.0005  -5.7548  -5.7512  -5.3163  -5.2979  -5.2902  -5.2805
    -4.4051  -4.3960  -4.3884  -4.1567  -4.1528  -4.1486  -4.1237  -4.1118
    -4.0676  -3.7649  -3.7591  -3.6554   5.1753   5.1784   5.1921   5.2713
     5.3805   5.4242   5.6126   6.2261   6.2355   6.2436   7.1783   7.1806
     7.4844   7.5806   7.7270   7.7433   7.7686   7.7809   7.7825   7.9773
     8.3949   8.7198   8.7376   8.7499   9.0761   9.0883   9.1162   9.4352
     9.4538   9.7252   9.7408   9.7492  10.1841  10.2483  10.2538  10.2583
    11.6803  11.6923  11.7145  11.9108  14.3583  14.3718  14.3786  14.3824
    15.1475  15.3505  15.4124  15.4448  15.5428  15.5595  15.5772  15.6836
    15.6903  15.9216  16.6322  17.0881  17.0997

          k = 0.0000 0.1000 0.0000 ( 18565 PWs)   bands (ev):

   -48.9284 -48.9271 -48.9259 -48.9246 -23.2559 -23.2383 -23.2324 -23.2312
   -23.2277 -23.2271 -23.1639 -23.1580 -23.1575 -23.1568 -23.1538 -23.1533
   -22.1345 -22.1037 -22.1008 -22.0859  -6.9390  -6.7289  -6.3055  -6.0413
    -6.0339  -5.9886  -5.7592  -5.7361  -5.3506  -5.3364  -5.3168  -5.2957
    -4.4000  -4.3639  -4.3493  -4.1517  -4.1512  -4.1305  -4.1291  -4.0883
    -4.0697  -3.7751  -3.7629  -3.6637   5.1921   5.2251   5.2418   5.2703
     5.4266   5.4714   5.6515   6.2083   6.2454   6.2659   7.1928   7.2032
     7.2784   7.4839   7.6763   7.7112   7.7325   7.7552   7.7746   8.1767
     8.5056   8.6933   8.7428   8.7598   8.9736   9.0195   9.1175   9.3207
     9.3894   9.6211   9.6723   9.7134  10.1557  10.2111  10.2165  10.2458
    11.7404  11.7748  11.8409  12.0262  14.3333  14.3423  14.3604  14.3771
    15.0919  15.3367  15.3790  15.4030  15.5888  15.6660  15.6678  15.7463
    15.7523  16.0103  16.6266  17.1378  17.1669

          k = 0.0000 0.1500 0.0000 ( 18557 PWs)   bands (ev):

   -48.9283 -48.9270 -48.9260 -48.9247 -23.2551 -23.2385 -23.2307 -23.2289
   -23.2254 -23.2248 -23.1637 -23.1610 -23.1592 -23.1578 -23.1561 -23.1556
   -22.1326 -22.1035 -22.1011 -22.0868  -6.9006  -6.7254  -6.3491  -6.0339
    -6.0241  -5.9691  -5.7666  -5.7182  -5.4305  -5.3664  -5.3545  -5.3204
    -4.3918  -4.3176  -4.2917  -4.1482  -4.1433  -4.1379  -4.1022  -4.0729
    -4.0533  -3.7914  -3.7685  -3.6774   5.2093   5.2688   5.3071   5.3237
     5.4920   5.5595   5.7196   6.1810   6.2621   6.3043   7.0704   7.2164
     7.2408   7.3622   7.5962   7.6190   7.7076   7.7081   7.7614   8.3754
     8.6415   8.6535   8.7598   8.7764   8.8146   8.9150   9.1199   9.1474
     9.2987   9.4737   9.5731   9.6582  10.1097  10.1424  10.1651  10.2244
    11.8359  11.9022  12.0232  12.1997  14.2528  14.2819  14.3662  14.3871
    15.0008  15.2767  15.2946  15.3606  15.6282  15.8391  15.8481  15.8665
    15.8757  16.1535  16.6155  17.2178  17.2699

          k = 0.0000 0.2000 0.0000 ( 18509 PWs)   bands (ev):

   -48.9282 -48.9269 -48.9261 -48.9248 -23.2540 -23.2389 -23.2283 -23.2257
   -23.2224 -23.2216 -23.1651 -23.1634 -23.1624 -23.1598 -23.1588 -23.1577
   -22.1300 -22.1032 -22.1015 -22.0880  -6.8474  -6.7209  -6.3993  -6.0214
    -6.0108  -5.9421  -5.7767  -5.7040  -5.5300  -5.4022  -5.3970  -5.3537
    -4.3805  -4.2638  -4.2231  -4.1500  -4.1436  -4.1316  -4.0774  -4.0663
    -4.0120  -3.8130  -3.7752  -3.6965   5.2253   5.2669   5.4196   5.4363
     5.5751   5.6875   5.8181   6.1479   6.2857   6.3608   6.8710   7.2338
     7.2481   7.2932   7.4924   7.4965   7.6341   7.6580   7.7429   8.5598
     8.6113   8.6126   8.7224   8.7853   8.7995   8.8493   8.9320   9.1213
     9.2033   9.3039   9.4637   9.5888  10.0482  10.0510  10.0971  10.1933
    11.9614  12.0636  12.2387  12.4136  14.1431  14.1978  14.3780  14.4037
    14.8770  15.1449  15.2261  15.2957  15.6950  15.9848  15.9852  16.1266
    16.1321  16.3427  16.5969  17.3245  17.3994

          k = 0.0000 0.2500 0.0000 ( 18505 PWs)   bands (ev):

   -48.9281 -48.9268 -48.9262 -48.9249 -23.2526 -23.2395 -23.2252 -23.2218
   -23.2185 -23.2177 -23.1701 -23.1664 -23.1637 -23.1631 -23.1628 -23.1581
   -22.1270 -22.1027 -22.1021 -22.0894  -6.7803  -6.7155  -6.4513  -6.0024
    -5.9945  -5.9083  -5.7896  -5.6979  -5.6432  -5.4396  -5.4391  -5.3946
    -4.3664  -4.2087  -4.1649  -4.1505  -4.1357  -4.1165  -4.0828  -4.0258
    -3.9697  -3.8391  -3.7827  -3.7208   5.2375   5.2647   5.5604   5.5777
     5.6774   5.8500   5.9439   6.1136   6.3166   6.4386   6.6861   7.1074
     7.2865   7.3494   7.3599   7.3711   7.5280   7.5719   7.7192   8.3799
     8.5515   8.6401   8.6850   8.7428   8.7493   8.8321   9.0066   9.1132
     9.1266   9.1278   9.3712   9.5100   9.9417   9.9740  10.0157  10.1515
    12.1115  12.2486  12.4719  12.6535  14.0072  14.0910  14.3980  14.4288
    14.7245  14.9888  15.1410  15.2147  15.7798  16.1525  16.1585  16.4347
    16.4466  16.5668  16.5690  17.4533  17.5468

          k = 0.0000 0.3000 0.0000 ( 18523 PWs)   bands (ev):

   -48.9279 -48.9266 -48.9264 -48.9251 -23.2511 -23.2402 -23.2215 -23.2171
   -23.2140 -23.2131 -23.1758 -23.1711 -23.1684 -23.1675 -23.1626 -23.1585
   -22.1237 -22.1031 -22.1020 -22.0910  -6.7087  -6.7002  -6.5015  -5.9764
    -5.9756  -5.8683  -5.8051  -5.7653  -5.7026  -5.4770  -5.4752  -5.4417
    -4.3498  -4.1823  -4.1640  -4.1155  -4.0982  -4.0890  -4.0796  -3.9837
    -3.9315  -3.8683  -3.7909  -3.7502   5.2457   5.2626   5.7267   5.7452
     5.7989   6.0425   6.0832   6.0887   6.3553   6.5204   6.5435   6.9870
     7.1833   7.2383   7.3303   7.3870   7.4387   7.4437   7.6904   8.1260
     8.4210   8.4871   8.5075   8.7578   8.8701   8.9170   8.9582   9.0779
     9.0868   9.1709   9.3278   9.4263   9.8195   9.8900   9.9239  10.0980
    12.2812  12.4486  12.7132  12.9084  13.8486  13.9629  14.4257  14.4642
    14.5505  14.8121  15.0471  15.1223  15.8750  16.3438  16.3641  16.5302
    16.7775  16.7989  16.8144  17.5987  17.7044

          k = 0.0000 0.3500 0.0000 ( 18495 PWs)   bands (ev):

   -48.9277 -48.9266 -48.9264 -48.9253 -23.2495 -23.2411 -23.2171 -23.2119
   -23.2089 -23.2079 -23.1818 -23.1764 -23.1737 -23.1727 -23.1622 -23.1590
   -22.1202 -22.1044 -22.1012 -22.0927  -6.6999  -6.6080  -6.5476  -5.9547
    -5.9437  -5.8923  -5.8228  -5.8228  -5.7187  -5.5084  -5.5057  -5.4935
    -4.3311  -4.2018  -4.1440  -4.0958  -4.0766  -4.0707  -4.0149  -3.9429
    -3.9016  -3.8997  -3.8004  -3.7845   5.2508   5.2607   5.9151   5.9357
     5.9383   6.0623   6.2412   6.2608   6.3777   6.4020   6.6826   6.8749
     7.0042   7.0991   7.2132   7.2686   7.3776   7.5352   7.6567   7.8582
     8.1460   8.3320   8.4751   8.7750   8.8055   8.9162   9.0180   9.0737
     9.0909   9.3307   9.3391   9.3410   9.6900   9.7999   9.8240  10.0316
    12.4662  12.6567  12.9572  13.1699  13.6716  13.8153  14.3422  14.4799
    14.5116  14.6173  14.9499  15.0230  15.9748  16.4798  16.5521  16.5990
    17.0747  17.1419  17.1773  17.7541  17.7891

          k = 0.0000 0.4000 0.0000 ( 18530 PWs)   bands (ev):

   -48.9276 -48.9268 -48.9263 -48.9255 -23.2479 -23.2422 -23.2121 -23.2063
   -23.2034 -23.2023 -23.1882 -23.1821 -23.1794 -23.1783 -23.1617 -23.1595
   -22.1168 -22.1061 -22.1002 -22.0944  -6.6880  -6.5881  -6.5052  -6.0212
    -5.9324  -5.9054  -5.8426  -5.7726  -5.7455  -5.5487  -5.5314  -5.5291
    -4.3108  -4.2227  -4.1341  -4.1031  -4.0521  -4.0173  -3.9603  -3.9320
    -3.9058  -3.8834  -3.8233  -3.8122   5.2537   5.2590   6.0562   6.0934
     6.1215   6.1455   6.2608   6.3910   6.4572   6.5007   6.7721   6.8177
     6.8612   6.9575   7.0128   7.0627   7.4261   7.5821   7.6184   7.6425
     7.8679   8.1792   8.4613   8.6772   8.7965   8.9558   8.9703   9.1356
     9.2198   9.2570   9.3842   9.4811   9.5587   9.7075   9.7172   9.9513
    12.6625  12.8671  13.2008  13.4289  13.4836  13.6503  14.1333  14.4061
    14.5316  14.5716  14.8533  14.9214  16.0749  16.4180  16.7703  16.8601
    17.3378  17.5120  17.5718  17.6117  17.9100

          k = 0.0000 0.4500 0.0000 ( 18522 PWs)   bands (ev):

   -48.9274 -48.9270 -48.9261 -48.9257 -23.2463 -23.2434 -23.2067 -23.2003
   -23.1975 -23.1964 -23.1945 -23.1881 -23.1854 -23.1843 -23.1611 -23.1601
   -22.1136 -22.1082 -22.0990 -22.0961  -6.6717  -6.6223  -6.3933  -6.1493
    -5.9095  -5.8640  -5.8637  -5.7806  -5.7189  -5.6056  -5.5452  -5.5439
    -4.2893  -4.2447  -4.1260  -4.1106  -4.0249  -3.9642  -3.9642  -3.9183
    -3.8794  -3.8739  -3.8665  -3.8277   5.2554   5.2577   6.0697   6.1687
     6.2642   6.3408   6.3697   6.5213   6.5350   6.6289   6.6791   6.7575
     6.7949   6.8161   6.8368   7.0767   7.3033   7.4688   7.5764   7.5995
     7.7617   8.0317   8.4714   8.5779   8.8238   8.9021   9.0321   9.1764
     9.2127   9.3561   9.4314   9.4491   9.6038   9.6039   9.6318   9.8564
    12.8660  13.0754  13.2785  13.4420  13.4701  13.6911  13.9105  14.1800
    14.5977  14.6443  14.7607  14.8219  16.1718  16.3452  16.9912  17.1439
    17.4168  17.5944  17.7650  17.8568  17.9744

          k = 0.0000 0.5000 0.0000 ( 18550 PWs)   bands (ev):

   -48.9272 -48.9272 -48.9259 -48.9259 -23.2448 -23.2448 -23.2007 -23.2007
   -23.1942 -23.1942 -23.1915 -23.1915 -23.1903 -23.1903 -23.1606 -23.1606
   -22.1107 -22.1107 -22.0976 -22.0976  -6.6501  -6.6501  -6.2740  -6.2740
    -5.8865  -5.8865  -5.8211  -5.8210  -5.6628  -5.6628  -5.5494  -5.5493
    -4.2670  -4.2670  -4.1183  -4.1183  -3.9954  -3.9954  -3.9137  -3.9137
    -3.8910  -3.8910  -3.8480  -3.8480   5.2566   5.2566   6.1066   6.1066
     6.4428   6.4428   6.5638   6.5638   6.5994   6.5994   6.6026   6.6026
     6.6756   6.6756   7.0267   7.0267   7.3188   7.3188   7.5334   7.5335
     7.8919   7.8919   8.5094   8.5094   8.8584   8.8585   9.1010   9.1011
     9.3138   9.3138   9.4837   9.4838   9.5270   9.5270   9.7466   9.7466
    13.0727  13.0727  13.2775  13.2775  13.6792  13.6792  13.9409  13.9409
    14.6747  14.6747  14.7285  14.7285  16.2626  16.2626  17.2085  17.2085
    17.4469  17.4469  17.8338  17.8338  18.0719

          k = 0.0500 0.5000 0.0000 ( 18528 PWs)   bands (ev):

   -48.9272 -48.9272 -48.9259 -48.9259 -23.2447 -23.2447 -23.2057 -23.2057
   -23.1976 -23.1976 -23.1893 -23.1893 -23.1842 -23.1842 -23.1606 -23.1606
   -22.1106 -22.1106 -22.0977 -22.0977  -6.6614  -6.6614  -6.2738  -6.2738
    -5.8993  -5.8992  -5.7958  -5.7958  -5.6652  -5.6652  -5.5553  -5.5553
    -4.2597  -4.2597  -4.1182  -4.1182  -4.0005  -4.0005  -3.9099  -3.9099
    -3.8889  -3.8889  -3.8411  -3.8411   5.2560   5.2560   6.0726   6.0726
     6.3350   6.3350   6.4448   6.4448   6.6220   6.6220   6.6377   6.6377
     6.7928   6.7928   7.0777   7.0777   7.3708   7.3708   7.5364   7.5364
     7.8886   7.8886   8.5004   8.5005   8.8657   8.8657   9.1094   9.1094
     9.2998   9.2998   9.4336   9.4336   9.5019   9.5019   9.7873   9.7873
    12.9625  12.9625  13.3857  13.3857  13.6992  13.6992  13.9538  13.9538
    14.6470  14.6470  14.7602  14.7602  16.2484  16.2484  17.2161  17.2161
    17.4429  17.4429  17.8380  17.8380  17.9688

          k = 0.1000 0.5000 0.0000 ( 18512 PWs)   bands (ev):

   -48.9272 -48.9272 -48.9259 -48.9259 -23.2445 -23.2445 -23.2129 -23.2129
   -23.2041 -23.2041 -23.1825 -23.1825 -23.1777 -23.1777 -23.1606 -23.1606
   -22.1101 -22.1101 -22.0979 -22.0979  -6.6924  -6.6924  -6.2730  -6.2730
    -5.9187  -5.9187  -5.7422  -5.7421  -5.6719  -5.6719  -5.5719  -5.5719
    -4.2392  -4.2392  -4.1182  -4.1182  -4.0134  -4.0134  -3.8988  -3.8988
    -3.8830  -3.8830  -3.8227  -3.8227   5.2541   5.2541   5.9902   5.9902
     6.1624   6.1624   6.2426   6.2426   6.6986   6.6986   6.7104   6.7104
     6.8865   6.8865   7.1992   7.1992   7.4971   7.4971   7.5607   7.5608
     7.8791   7.8791   8.4729   8.4729   8.8898   8.8899   9.1338   9.1339
     9.2593   9.2593   9.3310   9.3310   9.4268   9.4268   9.8654   9.8654
    12.7900  12.7900  13.5519  13.5519  13.7561  13.7561  13.9908  13.9908
    14.6057  14.6057  14.8127  14.8127  16.2051  16.2051  17.2377  17.2377
    17.4327  17.4327  17.7937  17.7937  17.8541

          k = 0.1500 0.5000 0.0000 ( 18510 PWs)   bands (ev):

   -48.9272 -48.9272 -48.9259 -48.9259 -23.2443 -23.2443 -23.2200 -23.2200
   -23.2102 -23.2102 -23.1759 -23.1759 -23.1716 -23.1716 -23.1606 -23.1606
   -22.1093 -22.1093 -22.0983 -22.0983  -6.7365  -6.7365  -6.2717  -6.2717
    -5.9362  -5.9362  -5.6823  -5.6823  -5.6770  -5.6770  -5.5949  -5.5949
    -4.2094  -4.2094  -4.1182  -4.1182  -4.0302  -4.0302  -3.8817  -3.8817
    -3.8733  -3.8733  -3.7971  -3.7971   5.2507   5.2507   5.8875   5.8875
     5.9830   5.9830   6.0437   6.0437   6.7810   6.7810   6.7930   6.7930
     6.9463   6.9463   7.3401   7.3401   7.5364   7.5364   7.7282   7.7282
     7.8644   7.8644   8.4271   8.4272   8.9346   8.9346   9.1715   9.1715
     9.1971   9.1971   9.2151   9.2151   9.3105   9.3105   9.9441   9.9441
    12.6145  12.6145  13.7171  13.7171  13.8417  13.8417  14.0472  14.0472
    14.5650  14.5650  14.8703  14.8703  16.1320  16.1320  17.2705  17.2705
    17.4223  17.4223  17.6016  17.6016  17.8854

          k = 0.2000 0.5000 0.0000 ( 18506 PWs)   bands (ev):

   -48.9272 -48.9272 -48.9259 -48.9259 -23.2439 -23.2439 -23.2267 -23.2267
   -23.2159 -23.2159 -23.1698 -23.1698 -23.1659 -23.1659 -23.1606 -23.1606
   -22.1083 -22.1083 -22.0987 -22.0987  -6.7865  -6.7865  -6.2702  -6.2702
    -5.9519  -5.9519  -5.6951  -5.6951  -5.6402  -5.6401  -5.5883  -5.5882
    -4.1754  -4.1754  -4.1184  -4.1184  -4.0485  -4.0485  -3.8603  -3.8603
    -3.8594  -3.8594  -3.7680  -3.7680   5.2454   5.2455   5.7804   5.7805
     5.8119   5.8119   5.8599   5.8600   6.8685   6.8685   6.8835   6.8835
     6.9928   6.9928   7.4698   7.4698   7.5488   7.5488   7.8451   7.8451
     7.9437   7.9437   8.3663   8.3663   8.9957   8.9957   9.0976   9.0976
     9.1163   9.1163   9.1717   9.1717   9.2222   9.2222  10.0133  10.0133
    12.4454  12.4454  13.8717  13.8717  13.9447  13.9447  14.1165  14.1165
    14.5265  14.5265  14.9294  14.9294  16.0324  16.0324  17.3098  17.3098
    17.4021  17.4021  17.4181  17.4181  17.9278

          k = 0.2500 0.5000 0.0000 ( 18562 PWs)   bands (ev):

   -48.9272 -48.9272 -48.9259 -48.9259 -23.2435 -23.2435 -23.2327 -23.2327
   -23.2210 -23.2210 -23.1645 -23.1645 -23.1610 -23.1610 -23.1603 -23.1603
   -22.1072 -22.1072 -22.0992 -22.0992  -6.8364  -6.8364  -6.2685  -6.2685
    -5.9663  -5.9662  -5.7090  -5.7090  -5.6658  -5.6657  -5.5203  -5.5203
    -4.1425  -4.1425  -4.1186  -4.1186  -4.0668  -4.0668  -3.8411  -3.8410
    -3.8367  -3.8367  -3.7383  -3.7383   5.2375   5.2375   5.6567   5.6567
     5.6785   5.6785   5.6987   5.6987   6.9620   6.9620   6.9780   6.9780
     7.0355   7.0355   7.5614   7.5614   7.5745   7.5745   7.8240   7.8240
     8.1564   8.1564   8.2956   8.2956   8.9532   8.9532   8.9983   8.9983
     9.0280   9.0280   9.1264   9.1264   9.2781   9.2782  10.0705  10.0705
    12.2881  12.2881  14.0107  14.0107  14.0532  14.0533  14.1911  14.1911
    14.4911  14.4911  14.9864  14.9864  15.9151  15.9151  17.2048  17.2048
    17.3511  17.3511  17.4230  17.4230  17.9725

          k = 0.3000 0.5000 0.0000 ( 18510 PWs)   bands (ev):

   -48.9272 -48.9272 -48.9259 -48.9259 -23.2432 -23.2432 -23.2379 -23.2379
   -23.2253 -23.2253 -23.1606 -23.1606 -23.1600 -23.1600 -23.1564 -23.1564
   -22.1062 -22.1062 -22.0996 -22.0996  -6.8819  -6.8819  -6.2668  -6.2668
    -5.9791  -5.9790  -5.7226  -5.7226  -5.6950  -5.6950  -5.4519  -5.4519
    -4.1189  -4.1189  -4.1146  -4.1146  -4.0840  -4.0840  -3.8194  -3.8194
    -3.8133  -3.8133  -3.7104  -3.7104   5.2255   5.2255   5.5239   5.5239
     5.5663   5.5663   5.5868   5.5868   7.0366   7.0366   7.0766   7.0766
     7.0975   7.0975   7.5753   7.5753   7.6504   7.6504   7.8017   7.8017
     8.2194   8.2194   8.3514   8.3514   8.7843   8.7843   8.9079   8.9079
     8.9387   8.9387   9.2161   9.2161   9.3360   9.3360  10.1154  10.1154
    12.1479  12.1479  14.1299  14.1299  14.1561  14.1561  14.2636  14.2636
    14.4601  14.4601  15.0378  15.0378  15.7929  15.7929  17.0211  17.0211
    17.3901  17.3901  17.4356  17.4356  18.0119

          k = 0.3500 0.5000 0.0000 ( 18498 PWs)   bands (ev):

   -48.9272 -48.9272 -48.9259 -48.9259 -23.2431 -23.2431 -23.2418 -23.2418
   -23.2288 -23.2288 -23.1606 -23.1606 -23.1564 -23.1564 -23.1529 -23.1529
   -22.1052 -22.1052 -22.1001 -22.1001  -6.9200  -6.9200  -6.2652  -6.2652
    -5.9898  -5.9898  -5.7346  -5.7346  -5.7207  -5.7207  -5.3925  -5.3925
    -4.1192  -4.1192  -4.0996  -4.0996  -4.0930  -4.0930  -3.7970  -3.7969
    -3.7923  -3.7923  -3.6863  -3.6863   5.2078   5.2078   5.4167   5.4167
     5.4679   5.4679   5.5105   5.5105   7.0957   7.0957   7.1145   7.1145
     7.2344   7.2344   7.5898   7.5898   7.6999   7.6999   7.7799   7.7799
     8.1371   8.1371   8.5170   8.5170   8.6153   8.6153   8.8327   8.8327
     8.8568   8.8568   9.3150   9.3150   9.3901   9.3901  10.1487  10.1487
    12.0300  12.0300  14.2256  14.2256  14.2438  14.2438  14.3277  14.3277
    14.4352  14.4352  15.0802  15.0802  15.6800  15.6800  16.8629  16.8629
    17.4239  17.4239  17.4520  17.4520  18.0417

          k = 0.4000 0.5000 0.0000 ( 18490 PWs)   bands (ev):

   -48.9272 -48.9272 -48.9259 -48.9259 -23.2454 -23.2454 -23.2424 -23.2424
   -23.2314 -23.2314 -23.1606 -23.1606 -23.1537 -23.1537 -23.1503 -23.1503
   -22.1044 -22.1044 -22.1004 -22.1004  -6.9485  -6.9484  -6.2640  -6.2640
    -5.9980  -5.9980  -5.7440  -5.7440  -5.7404  -5.7404  -5.3466  -5.3466
    -4.1195  -4.1195  -4.1115  -4.1115  -4.0790  -4.0790  -3.7773  -3.7773
    -3.7757  -3.7757  -3.6678  -3.6678   5.1853   5.1853   5.3381   5.3381
     5.4054   5.4054   5.4533   5.4533   7.1389   7.1389   7.1461   7.1461
     7.3829   7.3829   7.6036   7.6036   7.7281   7.7281   7.7605   7.7606
     8.0408   8.0408   8.4754   8.4754   8.6434   8.6434   8.7774   8.7774
     8.7906   8.7906   9.3997   9.3997   9.4346   9.4346  10.1715  10.1715
    11.9402  11.9402  14.2948  14.2948  14.3081  14.3081  14.3781  14.3781
    14.4190  14.4190  15.1107  15.1107  15.5898  15.5898  16.7413  16.7413
    17.4500  17.4500  17.4677  17.4677  18.0614

          k = 0.4500 0.5000 0.0000 ( 18536 PWs)   bands (ev):

   -48.9272 -48.9272 -48.9259 -48.9259 -23.2473 -23.2473 -23.2422 -23.2422
   -23.2329 -23.2329 -23.1606 -23.1606 -23.1522 -23.1522 -23.1488 -23.1488
   -22.1039 -22.1039 -22.1006 -22.1006  -6.9661  -6.9660  -6.2632  -6.2632
    -6.0032  -6.0031  -5.7528  -5.7527  -5.7500  -5.7500  -5.3176  -5.3176
    -4.1196  -4.1196  -4.1193  -4.1193  -4.0709  -4.0709  -3.7652  -3.7652
    -3.7639  -3.7639  -3.6561  -3.6561   5.1653   5.1653   5.2902   5.2902
     5.3736   5.3736   5.4177   5.4177   7.1652   7.1652   7.1674   7.1674
     7.5318   7.5318   7.6143   7.6143   7.7411   7.7411   7.7464   7.7464
     7.9253   7.9253   8.3881   8.3881   8.7226   8.7226   8.7437   8.7437
     8.7474   8.7474   9.4564   9.4564   9.4640   9.4640  10.1847  10.1847
    11.8837  11.8837  14.3362  14.3362  14.3432  14.3432  14.4106  14.4106
    14.4140  14.4140  15.1284  15.1284  15.5324  15.5324  16.6646  16.6646
    17.4667  17.4667  17.4787  17.4787  18.0722

          k = 0.5000 0.5000 0.0000 ( 18544 PWs)   bands (ev):

   -48.9272 -48.9272 -48.9259 -48.9259 -23.2479 -23.2479 -23.2422 -23.2422
   -23.2334 -23.2334 -23.1606 -23.1606 -23.1516 -23.1516 -23.1482 -23.1482
   -22.1037 -22.1037 -22.1007 -22.1007  -6.9720  -6.9720  -6.2629  -6.2629
    -6.0049  -6.0049  -5.7570  -5.7569  -5.7520  -5.7520  -5.3077  -5.3077
    -4.1221  -4.1221  -4.1197  -4.1197  -4.0683  -4.0683  -3.7615  -3.7615
    -3.7592  -3.7591  -3.6522  -3.6522   5.1572   5.1572   5.2741   5.2741
     5.3642   5.3642   5.4057   5.4057   7.1740   7.1740   7.1749   7.1749
     7.6185   7.6185   7.6221   7.6221   7.7411   7.7411   7.7435   7.7435
     7.8465   7.8465   8.3598   8.3598   8.7317   8.7317   8.7324   8.7324
     8.7502   8.7502   9.4743   9.4743   9.4764   9.4764  10.1891  10.1891
    11.8643  11.8643  14.3499  14.3499  14.3524  14.3524  14.4150  14.4150
    14.4219  14.4219  15.1340  15.1340  15.5129  15.5129  16.6384  16.6384
    17.4725  17.4725  17.4827  17.4827  18.0756

          k = 0.4500 0.4500 0.0000 ( 18524 PWs)   bands (ev):

   -48.9272 -48.9271 -48.9259 -48.9258 -23.2476 -23.2458 -23.2425 -23.2420
   -23.2333 -23.2315 -23.1607 -23.1605 -23.1536 -23.1517 -23.1502 -23.1483
   -22.1045 -22.1037 -22.1008 -22.1003  -6.9638  -6.9565  -6.2849  -6.2417
    -6.0059  -5.9970  -5.7523  -5.7490  -5.7479  -5.7440  -5.3331  -5.3217
    -4.1230  -4.1206  -4.1184  -4.1102  -4.0770  -4.0696  -3.7738  -3.7714
    -3.7663  -3.7637  -3.6627  -3.6575   5.1576   5.1849   5.2734   5.3389
     5.3655   5.4042   5.4259   5.4337   7.1305   7.1316   7.1837   7.1895
     7.3683   7.6070   7.6146   7.6182   7.7135   7.7294   7.7729   7.7753
     7.8713   8.0202   8.3762   8.4573   8.6409   8.7191   8.7290   8.7568
     8.7896   8.7898   9.3959   9.4311   9.4779   9.4800  10.1697  10.1909
    11.8590  11.9454  14.2988  14.3050  14.3260  14.3544  14.3895  14.4160
    14.4192  14.4302  15.1038  15.1411  15.5131  15.5896  16.6349  16.7433
    17.4222  17.4292  17.4975  17.5237  18.0243

          k = 0.4000 0.4000 0.0000 ( 18494 PWs)   bands (ev):

   -48.9273 -48.9270 -48.9260 -48.9257 -23.2466 -23.2435 -23.2420 -23.2391
   -23.2330 -23.2257 -23.1609 -23.1602 -23.1595 -23.1560 -23.1520 -23.1486
   -22.1067 -22.1034 -22.1010 -22.0992  -6.9399  -6.9113  -6.3453  -6.1792
    -6.0088  -5.9741  -5.7573  -5.7255  -5.7214  -5.7201  -5.4051  -5.3611
    -4.1257  -4.1233  -4.1148  -4.1022  -4.0773  -4.0735  -3.8098  -3.8074
    -3.7874  -3.7680  -3.6937  -3.6727   5.1588   5.2238   5.2713   5.3690
     5.4844   5.5173   5.5271   5.5619   7.0161   7.0189   7.0205   7.2159
     7.2320   7.5738   7.6099   7.6145   7.6182   7.6944   7.8558   7.8582
     7.9453   8.1510   8.3384   8.4238   8.6581   8.7222   8.7464   8.7776
     8.9425   8.9430   9.1978   9.3217   9.4884   9.4907  10.1096  10.1961
    11.8437  12.1664  14.1287  14.1351  14.1783  14.3616  14.3739  14.4219
    14.4662  14.4782  15.0108  15.1615  15.5138  15.7935  16.6221  17.0119
    17.2653  17.2934  17.5698  17.6454  17.8661

          k = 0.3500 0.3500 0.0000 ( 18530 PWs)   bands (ev):

   -48.9274 -48.9269 -48.9261 -48.9256 -23.2456 -23.2445 -23.2414 -23.2326
   -23.2292 -23.2168 -23.1687 -23.1651 -23.1613 -23.1599 -23.1524 -23.1489
   -22.1102 -22.1031 -22.1014 -22.0975  -6.9030  -6.8402  -6.4328  -6.0800
    -6.0133  -5.9386  -5.7739  -5.6881  -5.6812  -5.6789  -5.5114  -5.4188
    -4.1410  -4.1300  -4.1275  -4.1091  -4.0794  -4.0295  -3.8675  -3.8652
    -3.8213  -3.7689  -3.7433  -3.6949   5.1606   5.2424   5.2682   5.3740
     5.5754   5.6548   5.8208   5.8510   6.6758   6.8743   6.8764   7.2624
     7.2982   7.3993   7.5228   7.6255   7.6304   7.6371   7.9024   7.9782
     7.9804   8.0685   8.2430   8.4988   8.6032   8.7160   8.8146   8.9814
     9.0590   9.1517   9.1530   9.1863   9.5060   9.5084  10.0034  10.2042
    11.8202  12.4814  13.8589  13.8648  13.9243  14.3714  14.3742  14.4446
    14.5510  14.5632  14.8735  15.1931  15.5153  16.0456  16.5929  17.0345
    17.0874  17.2948  17.6026  17.6828  17.8432

          k = 0.3000 0.3000 0.0000 ( 18515 PWs)   bands (ev):

   -48.9276 -48.9267 -48.9263 -48.9254 -23.2473 -23.2429 -23.2408 -23.2320
   -23.2164 -23.2054 -23.1801 -23.1765 -23.1618 -23.1594 -23.1528 -23.1494
   -22.1146 -22.1027 -22.1018 -22.0953  -6.8575  -6.7490  -6.5356  -6.0189
    -5.9513  -5.8945  -5.8047  -5.6627  -5.6286  -5.6231  -5.6114  -5.4864
    -4.1891  -4.1355  -4.1330  -4.1018  -4.0869  -3.9742  -3.9435  -3.9412
    -3.8658  -3.8080  -3.7617  -3.7202   5.1630   5.2515   5.2642   5.3792
     5.6903   5.8435   6.1910   6.2320   6.3616   6.7238   6.7262   7.0679
     7.3226   7.3804   7.3939   7.4607   7.5605   7.6520   7.6534   8.1349
     8.1369   8.2418   8.3349   8.5195   8.5961   8.7194   8.8277   8.8717
     9.0570   9.3670   9.3844   9.3863   9.5303   9.5328   9.8451  10.2144
    11.7911  12.8470  13.5172  13.5226  13.5999  14.3758  14.3772  14.5031
    14.6673  14.6799  14.7235  15.2317  15.5182  16.2688  16.5357  16.7640
    16.8324  17.2604  17.4070  17.8255  18.1111

          k = 0.2500 0.2500 0.0000 ( 18537 PWs)   bands (ev):

   -48.9278 -48.9265 -48.9265 -48.9252 -23.2494 -23.2407 -23.2401 -23.2313
   -23.2021 -23.1928 -23.1928 -23.1890 -23.1623 -23.1589 -23.1534 -23.1499
   -22.1196 -22.1023 -22.1022 -22.0929  -6.8101  -6.6453  -6.6434  -6.0251
    -5.8480  -5.8469  -5.8033  -5.7738  -5.5646  -5.5645  -5.5577  -5.5561
    -4.2414  -4.1423  -4.1398  -4.0951  -4.0937  -4.0326  -4.0303  -3.9181
    -3.9178  -3.8831  -3.7452  -3.7433   5.1655   5.2574   5.2594   5.3823
     5.8177   6.0796   6.0832   6.5759   6.5858   6.6059   6.6564   6.6574
     6.8793   7.3869   7.3906   7.4717   7.4767   7.6804   7.6831   8.3209
     8.3228   8.4257   8.4302   8.4679   8.7084   8.7478   8.7487   8.9500
     8.9528   9.5608   9.5633   9.6165   9.6191   9.6312   9.6342  10.2257
    11.7595  13.1314  13.1366  13.2282  13.2330  14.3748  14.3812  14.5882
    14.6033  14.8095  14.8228  15.2727  15.5231  16.4295  16.4345  16.4835
    16.5538  16.8862  17.3744  17.6515  17.9840

          k = 0.2000 0.2000 0.0000 ( 18531 PWs)   bands (ev):

   -48.9280 -48.9267 -48.9263 -48.9250 -23.2517 -23.2395 -23.2384 -23.2307
   -23.2054 -23.2015 -23.1878 -23.1801 -23.1629 -23.1584 -23.1539 -23.1504
   -22.1246 -22.1028 -22.1017 -22.0905  -6.7689  -6.7472  -6.5373  -6.0313
    -5.8937  -5.8846  -5.8063  -5.6490  -5.6214  -5.4939  -5.4923  -5.4880
    -4.2928  -4.1568  -4.1559  -4.1204  -4.1197  -4.1031  -4.0855  -3.9742
    -3.9620  -3.8656  -3.7598  -3.7218   5.1681   5.2534   5.2621   5.3787
     5.8473   5.9454   6.2308   6.3585   6.4015   6.4604   6.4641   6.9969
     7.0691   7.3204   7.3803   7.4598   7.5645   7.7118   7.7149   8.3304
     8.5231   8.5276   8.5293   8.7190   8.7489   8.8232   8.8261   8.8722
     9.0600   9.3643   9.5974   9.6001   9.8298   9.8335   9.8484  10.2369
    11.7285  12.7292  12.7344  12.8518  13.5951  14.3719  14.3855  14.4852
    14.7375  14.9691  14.9838  15.3109  15.5307  16.2183  16.2733  16.2780
    16.5227  16.5305  17.0914  17.2929  17.8339

          k = 0.1500 0.1500 0.0000 ( 18527 PWs)   bands (ev):

   -48.9282 -48.9269 -48.9261 -48.9248 -23.2536 -23.2389 -23.2364 -23.2301
   -23.2167 -23.2127 -23.1747 -23.1687 -23.1634 -23.1579 -23.1544 -23.1509
   -22.1292 -22.1032 -22.1013 -22.0883  -6.8383  -6.7418  -6.4344  -6.0368
    -5.9669  -5.9380  -5.7760  -5.6772  -5.5039  -5.4203  -5.4195  -5.4173
    -4.3385  -4.2355  -4.2330  -4.1468  -4.1440  -4.1104  -4.0781  -4.0372
    -4.0291  -3.8213  -3.7669  -3.6962   5.1704   5.2442   5.2660   5.3584
     5.6587   5.8500   6.0069   6.0609   6.3622   6.3660   6.6730   7.2604
     7.2962   7.3370   7.4013   7.5235   7.6410   7.7412   7.7444   8.2389
     8.6052   8.7137   8.7394   8.7408   8.8100   8.9377   8.9825   9.0570
     9.0751   9.1891   9.6404   9.6432  10.0071  10.0105  10.0153  10.2469
    11.7011  12.3398  12.3453  12.4864  13.9196  14.3684  14.3894  14.4188
    14.8884  15.1329  15.1512  15.3428  15.5408  15.9888  16.0303  16.0485
    16.1929  16.5660  16.5879  17.2068  17.5703

          k = 0.1000 0.1000 0.0000 ( 18547 PWs)   bands (ev):

   -48.9283 -48.9270 -48.9260 -48.9247 -23.2552 -23.2384 -23.2348 -23.2296
   -23.2257 -23.2216 -23.1642 -23.1637 -23.1596 -23.1574 -23.1548 -23.1513
   -22.1329 -22.1036 -22.1010 -22.0866  -6.9094  -6.7310  -6.3467  -6.0413
    -6.0155  -5.9736  -5.7600  -5.7196  -5.3843  -5.3626  -5.3507  -5.3480
    -4.3742  -4.3216  -4.3188  -4.1526  -4.1495  -4.1161  -4.0999  -4.0766
    -4.0721  -3.7878  -3.7660  -3.6735   5.1722   5.2256   5.2690   5.3016
     5.5213   5.5608   5.7440   6.1528   6.2905   6.2943   7.0143   7.2134
     7.2302   7.5749   7.5879   7.6117   7.6985   7.7647   7.7681   8.1477
     8.6561   8.7058   8.7599   8.7737   8.9301   8.9313   9.0305   9.1983
     9.3241   9.4062   9.6899   9.6927  10.1137  10.1473  10.1533  10.2546
    11.6798  11.9986  12.0046  12.1716  14.1751  14.3644  14.3845  14.3925
    15.0291  15.2758  15.3067  15.3700  15.5522  15.7931  15.8078  15.8339
    15.8874  16.1628  16.6174  17.1357  17.3137

          k = 0.0500 0.0500 0.0000 ( 18577 PWs)   bands (ev):

   -48.9284 -48.9271 -48.9259 -48.9246 -23.2562 -23.2381 -23.2338 -23.2314
   -23.2294 -23.2272 -23.1640 -23.1575 -23.1574 -23.1550 -23.1536 -23.1515
   -22.1353 -22.1038 -22.1007 -22.0855  -6.9546  -6.7307  -6.2860  -6.0444
    -6.0369  -5.9966  -5.7558  -5.7459  -5.3232  -5.3055  -5.2997  -5.2963
    -4.3971  -4.3843  -4.3810  -4.1559  -4.1524  -4.1416  -4.1198  -4.1092
    -4.0683  -3.7674  -3.7612  -3.6581   5.1733   5.1865   5.2163   5.2710
     5.4033   5.4378   5.6277   6.2119   6.2469   6.2508   7.1834   7.1878
     7.3648   7.6083   7.7153   7.7336   7.7386   7.7799   7.7833   8.0181
     8.4479   8.7177   8.7323   8.7532   9.0644   9.0654   9.0922   9.3960
     9.4332   9.6649   9.7388   9.7416  10.1742  10.2321  10.2392  10.2593
    11.6662  11.7534  11.7600  11.9509  14.3384  14.3598  14.3724  14.3945
    15.1297  15.3451  15.4059  15.4232  15.5596  15.5825  15.6177  15.7048
    15.7112  15.9534  16.6304  17.0895  17.1375

          k = 0.0000 0.0000 0.0000 ( 18577 PWs)   bands (ev):

   -48.9285 -48.9271 -48.9259 -48.9246 -23.2566 -23.2380 -23.2337 -23.2331
   -23.2295 -23.2290 -23.1641 -23.1573 -23.1554 -23.1549 -23.1518 -23.1513
   -22.1361 -22.1039 -22.1007 -22.0851  -6.9701  -6.7320  -6.2640  -6.0459
    -6.0419  -6.0045  -5.7572  -5.7533  -5.3092  -5.2805  -5.2794  -5.2754
    -4.4076  -4.4068  -4.4023  -4.1584  -4.1549  -4.1534  -4.1218  -4.1202
    -4.0670  -3.7615  -3.7578  -3.6526   5.1586   5.1732   5.1754   5.2716
     5.3636   5.4098   5.6000   6.2323   6.2323   6.2362   7.1730   7.1733
     7.6197   7.6200   7.7443   7.7462   7.7852   7.7881   7.7891   7.8444
     8.3504   8.7290   8.7362   8.7467   9.1116   9.1125   9.1158   9.4756
     9.4770   9.7617   9.7637   9.7654  10.1938  10.2590  10.2624  10.2683
    11.6597  11.6636  11.6685  11.8700  14.3578  14.3701  14.3906  14.3990
    15.1662  15.3517  15.4038  15.4676  15.5001  15.5345  15.5769  15.6625
    15.6698  15.8916  16.6339  17.0713  17.0733

          k = 0.0000 0.0000 0.0354 ( 18581 PWs)   bands (ev):

   -48.9285 -48.9272 -48.9258 -48.9246 -23.2560 -23.2376 -23.2337 -23.2331
   -23.2295 -23.2290 -23.1647 -23.1578 -23.1554 -23.1549 -23.1519 -23.1514
   -22.1359 -22.1041 -22.1006 -22.0852  -6.9681  -6.7316  -6.2586  -6.0446
    -6.0417  -6.0047  -5.7553  -5.7513  -5.3155  -5.2875  -5.2843  -5.2804
    -4.4056  -4.4008  -4.3964  -4.1582  -4.1547  -4.1497  -4.1221  -4.1204
    -4.0692  -3.7646  -3.7609  -3.6553   5.1587   5.1753   5.1842   5.2879
     5.3639   5.4149   5.6064   6.2311   6.2359   6.2360   7.1618   7.1621
     7.6184   7.6188   7.7526   7.7544   7.7727   7.7868   7.7877   7.8506
     8.3547   8.7190   8.7439   8.7507   9.0995   9.1036   9.1070   9.4765
     9.4779   9.7360   9.7575   9.7592  10.1942  10.2518  10.2551  10.2680
    11.6697  11.6833  11.6871  11.8686  14.3427  14.3548  14.3950  14.4034
    15.1681  15.3595  15.3970  15.4659  15.5000  15.5302  15.5869  15.6726
    15.6806  15.9066  16.6608  17.0773  17.0876

          k = 0.0000 0.0000 0.0707 ( 18581 PWs)   bands (ev):

   -48.9284 -48.9272 -48.9258 -48.9246 -23.2544 -23.2361 -23.2336 -23.2330
   -23.2296 -23.2291 -23.1664 -23.1592 -23.1553 -23.1548 -23.1519 -23.1514
   -22.1353 -22.1046 -22.1003 -22.0855  -6.9619  -6.7307  -6.2427  -6.0410
    -6.0404  -6.0055  -5.7494  -5.7452  -5.3344  -5.3081  -5.2986  -5.2949
    -4.3997  -4.3833  -4.3790  -4.1575  -4.1541  -4.1387  -4.1227  -4.1211
    -4.0758  -3.7738  -3.7701  -3.6631   5.1590   5.1750   5.2146   5.3364
     5.3649   5.4300   5.6275   6.2159   6.2469   6.2469   7.1295   7.1300
     7.6160   7.6167   7.7351   7.7760   7.7776   7.7829   7.7838   7.8692
     8.3675   8.6376   8.7868   8.7930   9.0638   9.0675   9.0906   9.4791
     9.4806   9.6620   9.7407   9.7425  10.1956  10.2303  10.2332  10.2670
    11.6731  11.7517  11.7552  11.8647  14.2980  14.3092  14.4083  14.4167
    15.1736  15.3636  15.3745  15.4606  15.4998  15.5201  15.6326  15.7037
    15.7131  15.9527  16.7385  17.0892  17.1353

          k = 0.0000 0.0000 0.1061 ( 18573 PWs)   bands (ev):

   -48.9284 -48.9272 -48.9258 -48.9246 -23.2517 -23.2337 -23.2335 -23.2329
   -23.2297 -23.2292 -23.1693 -23.1617 -23.1552 -23.1547 -23.1521 -23.1515
   -22.1343 -22.1056 -22.0998 -22.0860  -6.9519  -6.7300  -6.2165  -6.0399
    -6.0322  -6.0067  -5.7398  -5.7351  -5.3650  -5.3417  -5.3209  -5.3175
    -4.3900  -4.3557  -4.3515  -4.1564  -4.1531  -4.1239  -4.1221  -4.1210
    -4.0866  -3.7890  -3.7853  -3.6761   5.1595   5.1745   5.2571   5.3664
     5.4158   5.4547   5.6700   6.1909   6.2651   6.2651   7.0800   7.0805
     7.6147   7.6157   7.6724   7.7765   7.7773   7.8119   7.8133   7.9000
     8.3881   8.5074   8.8539   8.8592   9.0062   9.0096   9.0641   9.4835
     9.4851   9.5476   9.7175   9.7193  10.1945  10.1972  10.1980  10.2651
    11.6787  11.8582  11.8588  11.8621  14.2248  14.2348  14.4302  14.4387
    15.1828  15.3340  15.3379  15.4518  15.4995  15.5100  15.7220  15.7648
    15.7664  16.0344  16.8587  17.1087  17.2113

          k = 0.0000 0.0000 0.1414 ( 18565 PWs)   bands (ev):

   -48.9283 -48.9273 -48.9257 -48.9247 -23.2480 -23.2333 -23.2327 -23.2304
   -23.2299 -23.2294 -23.1731 -23.1650 -23.1551 -23.1545 -23.1522 -23.1517
   -22.1329 -22.1068 -22.0992 -22.0866  -6.9382  -6.7308  -6.1804  -6.0385
    -6.0187  -6.0083  -5.7265  -5.7210  -5.4058  -5.3870  -5.3494  -5.3464
    -4.3767  -4.3199  -4.3159  -4.1549  -4.1518  -4.1254  -4.1236  -4.1013
    -4.0972  -3.8099  -3.8063  -3.6940   5.1602   5.1738   5.3003   5.3684
     5.4885   5.5244   5.7433   6.1568   6.2904   6.2905   7.0179   7.0185
     7.5843   7.6160   7.6174   7.7677   7.7685   7.8586   7.8599   7.9432
     8.3355   8.4162   8.9300   8.9330   8.9400   8.9445   9.0284   9.4035
     9.4896   9.4914   9.6918   9.6937  10.1451  10.1475  10.2011  10.2624
    11.6864  11.8494  11.9972  12.0002  14.1248  14.1335  14.4608  14.4694
    15.1954  15.2765  15.2854  15.4399  15.4990  15.5031  15.8043  15.8393
    15.8884  16.1599  17.0067  17.1352  17.2691

          k = 0.0000 0.0000 0.1768 ( 18561 PWs)   bands (ev):

   -48.9283 -48.9273 -48.9257 -48.9247 -23.2434 -23.2331 -23.2325 -23.2301
   -23.2296 -23.2263 -23.1780 -23.1692 -23.1549 -23.1544 -23.1524 -23.1519
   -22.1312 -22.1084 -22.0984 -22.0874  -6.9212  -6.7342  -6.1351  -6.0366
    -6.0103  -5.9984  -5.7100  -5.7031  -5.4551  -5.4425  -5.3824  -5.3799
    -4.3601  -4.2781  -4.2742  -4.1531  -4.1501  -4.1272  -4.1255  -4.1194
    -4.0682  -3.8364  -3.8327  -3.7165   5.1610   5.1730   5.3347   5.3708
     5.5305   5.6594   5.8551   6.1145   6.3228   6.3229   6.9478   6.9485
     7.4711   7.6201   7.6222   7.7569   7.7576   7.9149   7.9163   7.9986
     8.1304   8.4511   8.8398   8.8423   8.9848   9.0401   9.0438   9.2415
     9.4975   9.4994   9.6663   9.6683  10.0826  10.0849  10.2050  10.2589
    11.6961  11.8385  12.1592  12.1621  14.0007  14.0081  14.4998  14.5085
    15.2066  15.2110  15.2169  15.4249  15.4985  15.4990  15.8886  15.9299
    16.0380  16.3370  17.1601  17.1603  17.1681

          k = 0.0000 0.0000 0.2121 ( 18541 PWs)   bands (ev):

   -48.9282 -48.9274 -48.9256 -48.9248 -23.2379 -23.2328 -23.2323 -23.2304
   -23.2298 -23.2216 -23.1836 -23.1740 -23.1547 -23.1541 -23.1526 -23.1521
   -22.1293 -22.1103 -22.0975 -22.0883  -6.9014  -6.7414  -6.0814  -6.0344
    -6.0126  -5.9702  -5.6910  -5.6816  -5.5103  -5.5064  -5.4181  -5.4161
    -4.3405  -4.2320  -4.2282  -4.1509  -4.1481  -4.1405  -4.1294  -4.1275
    -4.0350  -3.8679  -3.8643  -3.7432   5.1620   5.1720   5.3575   5.3734
     5.5796   5.8177   6.0054   6.0650   6.3621   6.3621   6.8734   6.8742
     7.3334   7.6262   7.6301   7.7442   7.7448   7.9008   7.9809   7.9817
     8.0664   8.4923   8.7400   8.7422   8.9348   9.0726   9.1496   9.1528
     9.5072   9.5091   9.6421   9.6442  10.0081  10.0102  10.2096  10.2546
    11.7076  11.8260  12.3385  12.3413  13.8555  13.8617  14.5468  14.5556
    15.1289  15.1396  15.2293  15.4073  15.4967  15.4979  15.9859  16.0359
    16.1920  16.5599  17.0372  17.0939  17.2063

          k = 0.0000 0.0000 0.2475 ( 18554 PWs)   bands (ev):

   -48.9281 -48.9275 -48.9255 -48.9249 -23.2327 -23.2320 -23.2317 -23.2307
   -23.2301 -23.2162 -23.1898 -23.1795 -23.1545 -23.1539 -23.1529 -23.1523
   -22.1270 -22.1124 -22.0964 -22.0894  -6.8795  -6.7527  -6.0320  -6.0202
    -6.0152  -5.9334  -5.6727  -5.6567  -5.5766  -5.5662  -5.4550  -5.4536
    -4.3184  -4.1833  -4.1796  -4.1639  -4.1485  -4.1458  -4.1319  -4.1299
    -3.9987  -3.9041  -3.9005  -3.7738   5.1632   5.1708   5.3709   5.3761
     5.6348   5.9953   6.0096   6.1890   6.4080   6.4080   6.7977   6.7986
     7.1730   7.6139   7.6406   7.6761   7.7301   7.7306   8.0548   8.0559
     8.1467   8.5390   8.6352   8.6371   8.8801   8.9055   9.2647   9.2675
     9.5185   9.5205   9.6196   9.6218   9.9225   9.9246  10.2148  10.2496
    11.7205  11.8120  12.5296  12.5323  13.6923  13.6975  14.6014  14.6105
    15.0474  15.0579  15.2499  15.3875  15.4956  15.4973  16.0958  16.1549
    16.3522  16.8131  16.9043  16.9709  17.2483

          k = 0.0000 0.0000 0.2828 ( 18514 PWs)   bands (ev):

   -48.9280 -48.9276 -48.9254 -48.9250 -23.2323 -23.2317 -23.2310 -23.2304
   -23.2252 -23.2104 -23.1966 -23.1854 -23.1542 -23.1537 -23.1531 -23.1526
   -22.1247 -22.1147 -22.0953 -22.0905  -6.8562  -6.7682  -6.0294  -6.0179
    -5.9528  -5.8884  -5.6742  -5.6511  -5.6286  -5.6016  -5.4919  -5.4914
    -4.2943  -4.1892  -4.1458  -4.1433  -4.1345  -4.1334  -4.1325  -4.1298
    -3.9604  -3.9444  -3.9409  -3.8075   5.1644   5.1696   5.3781   5.3787
     5.6945   5.9496   6.1875   6.3993   6.4601   6.4603   6.7229   6.7240
     6.9935   7.3893   7.6534   7.6564   7.7149   7.7152   8.1370   8.1382
     8.2398   8.5289   8.5305   8.5905   8.7466   8.8223   9.3822   9.3847
     9.5315   9.5336   9.5989   9.6011   9.8274   9.8294  10.2204  10.2441
    11.7347  11.7969  12.7277  12.7305  13.5146  13.5190  14.6633  14.6726
    14.9649  14.9752  15.2721  15.3658  15.4952  15.4967  16.2168  16.2839
    16.5214  16.7654  16.8387  17.0832  17.2598

          k = 0.0000 0.0000 0.3182 ( 18522 PWs)   bands (ev):

   -48.9279 -48.9277 -48.9253 -48.9251 -23.2320 -23.2314 -23.2313 -23.2307
   -23.2182 -23.2042 -23.2037 -23.1916 -23.1539 -23.1534 -23.1534 -23.1528
   -22.1222 -22.1171 -22.0941 -22.0917  -6.8324  -6.7873  -6.0266  -6.0208
    -5.8806  -5.8363  -5.7280  -5.7205  -5.5976  -5.5898  -5.5284  -5.5277
    -4.2687  -4.2155  -4.1431  -4.1407  -4.1373  -4.1352  -4.0836  -4.0800
    -3.9883  -3.9847  -3.9212  -3.8439   5.1657   5.1683   5.3807   5.3812
     5.7574   5.8865   6.3887   6.5179   6.5186   6.6304   6.6507   6.6524
     6.7997   7.1316   7.6679   7.6689   7.6993   7.6993   8.2266   8.2278
     8.3460   8.4240   8.4254   8.5994   8.6457   8.7629   9.4995   9.5018
     9.5460   9.5482   9.5797   9.5820   9.7240   9.7261  10.2263  10.2383
    11.7498  11.7813  12.9289  12.9320  13.3258  13.3297  14.7315  14.7411
    14.8836  14.8936  15.2955  15.3429  15.4953  15.4961  16.3469  16.4199
    16.6241  16.6998  16.7006  17.0734  17.3352

          k = 0.0000 0.0000 0.3536 ( 18458 PWs)   bands (ev):

   -48.9278 -48.9278 -48.9252 -48.9252 -23.2317 -23.2316 -23.2311 -23.2310
   -23.2110 -23.2109 -23.1979 -23.1978 -23.1537 -23.1536 -23.1531 -23.1531
   -22.1197 -22.1197 -22.0929 -22.0929  -6.8091  -6.8090  -6.0237  -6.0236
    -5.8051  -5.8051  -5.7790  -5.7790  -5.5640  -5.5640  -5.5612  -5.5611
    -4.2422  -4.2422  -4.1402  -4.1402  -4.1379  -4.1379  -4.0350  -4.0349
    -4.0314  -4.0314  -3.8821  -3.8821   5.1670   5.1670   5.3817   5.3818
     5.8219   5.8220   6.5701   6.5701   6.5822   6.5823   6.6082   6.6082
     6.8764   6.8764   7.6833   7.6834   7.6837   7.6837   8.3227   8.3227
     8.3240   8.3240   8.4658   8.4658   8.7036   8.7037   9.5621   9.5622
     9.5643   9.5644   9.6141   9.6141   9.6163   9.6163  10.2323  10.2323
    11.7654  11.7655  13.1295  13.1295  13.1328  13.1329  14.8053  14.8054
    14.8151  14.8152  15.3192  15.3193  15.4956  15.4956  16.4835  16.4835
    16.5599  16.5599  16.8850  16.8851  17.3733

          k = 0.0000 0.0500 0.3536 ( 18504 PWs)   bands (ev):

   -48.9278 -48.9277 -48.9253 -48.9252 -23.2313 -23.2312 -23.2306 -23.2305
   -23.2109 -23.2108 -23.1980 -23.1979 -23.1543 -23.1542 -23.1536 -23.1536
   -22.1194 -22.1194 -22.0930 -22.0930  -6.8034  -6.8033  -6.0207  -6.0207
    -5.8239  -5.8239  -5.7801  -5.7801  -5.5665  -5.5665  -5.5550  -5.5550
    -4.2462  -4.2462  -4.1403  -4.1403  -4.1328  -4.1328  -4.0365  -4.0365
    -4.0218  -4.0218  -3.8819  -3.8819   5.1837   5.1837   5.3988   5.3988
     5.8301   5.8301   6.5674   6.5674   6.5868   6.5868   6.6056   6.6056
     6.8817   6.8817   7.6495   7.6496   7.6738   7.6738   8.2578   8.2578
     8.2752   8.2752   8.5319   8.5320   8.7554   8.7554   9.5207   9.5208
     9.5417   9.5417   9.6084   9.6084   9.6157   9.6158  10.2217  10.2217
    11.8081  11.8081  13.1336  13.1336  13.1376  13.1376  14.7936  14.7936
    14.7997  14.7998  15.2990  15.2990  15.5388  15.5389  16.5065  16.5065
    16.5760  16.5760  16.9034  16.9034  17.3949

          k = 0.0000 0.1000 0.3536 ( 18522 PWs)   bands (ev):

   -48.9278 -48.9277 -48.9253 -48.9252 -23.2301 -23.2300 -23.2292 -23.2291
   -23.2106 -23.2105 -23.1981 -23.1980 -23.1559 -23.1558 -23.1551 -23.1550
   -22.1188 -22.1188 -22.0934 -22.0934  -6.7865  -6.7864  -6.0119  -6.0118
    -5.8683  -5.8683  -5.7877  -5.7877  -5.5739  -5.5738  -5.5436  -5.5435
    -4.2546  -4.2546  -4.1407  -4.1407  -4.1186  -4.1186  -4.0412  -4.0411
    -3.9967  -3.9966  -3.8811  -3.8811   5.2334   5.2335   5.4490   5.4491
     5.8548   5.8548   6.5602   6.5603   6.5987   6.5987   6.6003   6.6004
     6.8963   6.8963   7.5566   7.5566   7.6438   7.6438   8.1508   8.1508
     8.1720   8.1720   8.6330   8.6331   8.8665   8.8666   9.4105   9.4105
     9.4801   9.4802   9.5896   9.5896   9.6127   9.6127  10.1906  10.1907
    11.9271  11.9272  13.1469  13.1469  13.1526  13.1526  14.7547  14.7547
    14.7580  14.7580  15.2392  15.2393  15.6657  15.6658  16.5730  16.5730
    16.6235  16.6235  16.9569  16.9569  17.4567

          k = 0.0000 0.1500 0.3536 ( 18518 PWs)   bands (ev):

   -48.9277 -48.9276 -48.9254 -48.9253 -23.2281 -23.2280 -23.2269 -23.2268
   -23.2101 -23.2100 -23.1983 -23.1983 -23.1586 -23.1585 -23.1574 -23.1574
   -22.1177 -22.1177 -22.0939 -22.0939  -6.7589  -6.7588  -5.9974  -5.9973
    -5.9258  -5.9258  -5.8009  -5.8009  -5.5861  -5.5860  -5.5384  -5.5384
    -4.2603  -4.2603  -4.1412  -4.1412  -4.0989  -4.0989  -4.0483  -4.0483
    -3.9628  -3.9628  -3.8784  -3.8784   5.3153   5.3153   5.5292   5.5293
     5.8970   5.8971   6.5515   6.5515   6.5885   6.5885   6.6231   6.6231
     6.9176   6.9176   7.4254   7.4254   7.5904   7.5904   8.0317   8.0317
     8.0545   8.0545   8.7124   8.7124   8.9934   8.9934   9.2634   9.2634
     9.3944   9.3944   9.5601   9.5601   9.6061   9.6061  10.1412  10.1413
    12.1031  12.1032  13.1716  13.1716  13.1798  13.1798  14.6828  14.6829
    14.6985  14.6986  15.1427  15.1428  15.8675  15.8676  16.6772  16.6772
    16.7011  16.7011  17.0406  17.0406  17.5490

          k = 0.0000 0.2000 0.3536 ( 18550 PWs)   bands (ev):

   -48.9276 -48.9275 -48.9255 -48.9254 -23.2254 -23.2253 -23.2237 -23.2236
   -23.2094 -23.2093 -23.1987 -23.1986 -23.1623 -23.1622 -23.1607 -23.1606
   -22.1163 -22.1163 -22.0948 -22.0948  -6.7213  -6.7213  -5.9891  -5.9891
    -5.9776  -5.9775  -5.8163  -5.8163  -5.6030  -5.6029  -5.5464  -5.5463
    -4.2585  -4.2585  -4.1418  -4.1418  -4.0788  -4.0788  -4.0574  -4.0574
    -3.9256  -3.9256  -3.8720  -3.8720   5.4277   5.4278   5.6330   5.6331
     5.9593   5.9594   6.5448   6.5448   6.5757   6.5757   6.6550   6.6551
     6.9430   6.9430   7.2758   7.2759   7.5123   7.5123   7.9012   7.9012
     7.9300   7.9300   8.7144   8.7144   9.1195   9.1195   9.1430   9.1431
     9.3043   9.3044   9.5241   9.5241   9.5949   9.5949  10.0770  10.0770
    12.3164  12.3165  13.2105  13.2105  13.2216  13.2217  14.5881  14.5882
    14.6164  14.6165  15.0140  15.0141  16.1320  16.1321  16.8062  16.8062
    16.8105  16.8105  17.1461  17.1461  17.6528

          k = 0.0000 0.2500 0.3536 ( 18528 PWs)   bands (ev):

   -48.9275 -48.9274 -48.9256 -48.9255 -23.2219 -23.2219 -23.2198 -23.2197
   -23.2085 -23.2085 -23.1991 -23.1991 -23.1667 -23.1667 -23.1647 -23.1646
   -22.1146 -22.1146 -22.0958 -22.0958  -6.6751  -6.6750  -6.0543  -6.0542
    -5.9530  -5.9530  -5.8304  -5.8304  -5.6244  -5.6243  -5.5692  -5.5692
    -4.2479  -4.2479  -4.1422  -4.1422  -4.0676  -4.0676  -4.0641  -4.0641
    -3.8887  -3.8887  -3.8600  -3.8600   5.5686   5.5686   5.7500   5.7501
     6.0458   6.0458   6.5387   6.5387   6.5665   6.5665   6.6964   6.6965
     6.9714   6.9714   7.1233   7.1233   7.4119   7.4119   7.7616   7.7616
     7.7931   7.7932   8.5773   8.5773   9.1211   9.1211   9.2258   9.2258
     9.2425   9.2426   9.4855   9.4856   9.5772   9.5773  10.0027  10.0027
    12.5523  12.5523  13.2661  13.2661  13.2804  13.2804  14.4748  14.4748
    14.5141  14.5141  14.8581  14.8582  16.4454  16.4455  16.9360  16.9360
    16.9642  16.9642  17.2612  17.2612  17.7411

          k = 0.0000 0.3000 0.3536 ( 18494 PWs)   bands (ev):

   -48.9273 -48.9272 -48.9258 -48.9257 -23.2179 -23.2178 -23.2151 -23.2151
   -23.2076 -23.2075 -23.1997 -23.1996 -23.1719 -23.1718 -23.1693 -23.1693
   -22.1127 -22.1127 -22.0971 -22.0971  -6.6216  -6.6216  -6.1192  -6.1192
    -5.9244  -5.9243  -5.8401  -5.8401  -5.6499  -5.6499  -5.6050  -5.6050
    -4.2293  -4.2293  -4.1424  -4.1424  -4.0780  -4.0780  -4.0586  -4.0586
    -3.8548  -3.8548  -3.8423  -3.8423   5.7351   5.7352   5.8669   5.8669
     6.1592   6.1593   6.5163   6.5163   6.5837   6.5837   6.7475   6.7475
     6.9679   6.9679   7.0149   7.0149   7.2923   7.2923   7.6177   7.6177
     7.6393   7.6393   8.3510   8.3510   9.1569   9.1569   9.1860   9.1861
     9.3458   9.3458   9.4480   9.4480   9.5506   9.5506   9.9243   9.9243
    12.8002  12.8003  13.3397  13.3397  13.3573  13.3574  14.3471  14.3472
    14.3946  14.3947  14.6799  14.6800  16.7944  16.7945  17.0874  17.0874
    17.1300  17.1300  17.3716  17.3716  17.8049

          k = 0.0000 0.3500 0.3536 ( 18514 PWs)   bands (ev):

   -48.9271 -48.9271 -48.9260 -48.9259 -23.2132 -23.2131 -23.2100 -23.2099
   -23.2066 -23.2065 -23.2003 -23.2002 -23.1775 -23.1774 -23.1746 -23.1745
   -22.1106 -22.1106 -22.0986 -22.0986  -6.5627  -6.5627  -6.1832  -6.1831
    -5.8925  -5.8924  -5.8425  -5.8425  -5.6791  -5.6790  -5.6495  -5.6495
    -4.2052  -4.2052  -4.1422  -4.1422  -4.0876  -4.0876  -4.0627  -4.0627
    -3.8261  -3.8261  -3.8219  -3.8219   5.9238   5.9239   5.9749   5.9749
     6.2890   6.2890   6.4764   6.4764   6.6391   6.6392   6.8086   6.8086
     6.8430   6.8431   7.0523   7.0523   7.1524   7.1524   7.4746   7.4746
     7.4748   7.4749   8.0934   8.0935   9.1778   9.1779   9.2018   9.2018
     9.4135   9.4136   9.4378   9.4378   9.5134   9.5134   9.8481   9.8481
    13.0529  13.0530  13.4315  13.4316  13.4528  13.4528  14.2094  14.2094
    14.2619  14.2620  14.4837  14.4838  17.1612  17.1613  17.2627  17.2627
    17.3002  17.3002  17.4660  17.4660  17.8256

          k = 0.0000 0.4000 0.3536 ( 18520 PWs)   bands (ev):

   -48.9269 -48.9269 -48.9261 -48.9261 -23.2083 -23.2082 -23.2055 -23.2054
   -23.2043 -23.2042 -23.2008 -23.2008 -23.1834 -23.1834 -23.1802 -23.1802
   -22.1084 -22.1084 -22.1002 -22.1002  -6.5004  -6.5004  -6.2463  -6.2463
    -5.8584  -5.8583  -5.8354  -5.8354  -5.7110  -5.7110  -5.6972  -5.6971
    -4.1787  -4.1787  -4.1417  -4.1417  -4.0956  -4.0956  -4.0744  -4.0744
    -3.8045  -3.8045  -3.8031  -3.8031   6.0745   6.0746   6.1303   6.1304
     6.4057   6.4057   6.4193   6.4193   6.7323   6.7323   6.7505   6.7505
     6.8799   6.8800   6.9861   6.9861   7.1115   7.1115   7.3159   7.3159
     7.3376   7.3376   7.8295   7.8296   9.2010   9.2010   9.2416   9.2416
     9.3835   9.3835   9.4522   9.4522   9.5273   9.5273   9.7789   9.7789
    13.3047  13.3047  13.5410  13.5410  13.5654  13.5654  14.0655  14.0656
    14.1205  14.1205  14.2732  14.2732  17.4191  17.4191  17.4666  17.4666
    17.5426  17.5426  17.5738  17.5739  17.7961

          k = 0.0000 0.4500 0.3536 ( 18544 PWs)   bands (ev):

   -48.9267 -48.9267 -48.9263 -48.9263 -23.2049 -23.2049 -23.2037 -23.2037
   -23.2001 -23.2001 -23.1984 -23.1983 -23.1895 -23.1894 -23.1862 -23.1861
   -22.1062 -22.1062 -22.1021 -22.1021  -6.4366  -6.4365  -6.3092  -6.3092
    -5.8238  -5.8237  -5.8183  -5.8183  -5.7443  -5.7442  -5.7418  -5.7418
    -4.1534  -4.1534  -4.1410  -4.1410  -4.1009  -4.1009  -4.0906  -4.0906
    -3.7910  -3.7910  -3.7902  -3.7902   6.1691   6.1691   6.3453   6.3453
     6.3490   6.3490   6.4945   6.4945   6.6454   6.6454   6.7884   6.7884
     6.9052   6.9052   6.9648   6.9649   7.1783   7.1783   7.1876   7.1876
     7.2223   7.2223   7.5770   7.5771   9.2463   9.2464   9.2722   9.2723
     9.3590   9.3590   9.3922   9.3922   9.5953   9.5953   9.7167   9.7167
    13.5485  13.5485  13.6689  13.6689  13.6925  13.6926  13.9183  13.9183
    13.9752  13.9752  14.0525  14.0526  17.6018  17.6018  17.6061  17.6061
    17.6169  17.6169  17.7572  17.7572  17.9174

          k = 0.0000 0.5000 0.3536 ( 18528 PWs)   bands (ev):

   -48.9266 -48.9265 -48.9265 -48.9265 -23.2042 -23.2042 -23.2034 -23.2033
   -23.1958 -23.1958 -23.1950 -23.1950 -23.1923 -23.1923 -23.1922 -23.1922
   -22.1041 -22.1041 -22.1041 -22.1041  -6.3726  -6.3726  -6.3725  -6.3725
    -5.8007  -5.8007  -5.7995  -5.7995  -5.7692  -5.7692  -5.7680  -5.7680
    -4.1408  -4.1408  -4.1394  -4.1394  -4.1029  -4.1029  -4.1015  -4.1015
    -3.7860  -3.7860  -3.7860  -3.7860   6.2600   6.2600   6.2602   6.2602
     6.5640   6.5640   6.5667   6.5667   6.5747   6.5747   6.5774   6.5774
     7.0541   7.0541   7.0553   7.0553   7.0711   7.0711   7.0723   7.0723
     7.3603   7.3604   7.3606   7.3606   9.2859   9.2859   9.2861   9.2861
     9.3472   9.3472   9.3472   9.3472   9.6573   9.6573   9.6575   9.6575
    13.7574  13.7574  13.7594  13.7594  13.8240  13.8240  13.8304  13.8304
    13.8376  13.8376  13.8422  13.8422  17.6500  17.6500  17.6564  17.6564
    17.7637  17.7637  17.7844  17.7852  17.8167

          k = 0.0500 0.5000 0.3536 ( 18544 PWs)   bands (ev):

   -48.9266 -48.9265 -48.9265 -48.9265 -23.2050 -23.2050 -23.2039 -23.2039
   -23.2006 -23.2006 -23.1998 -23.1998 -23.1869 -23.1869 -23.1867 -23.1867
   -22.1041 -22.1041 -22.1041 -22.1041  -6.3825  -6.3825  -6.3820  -6.3820
    -5.8021  -5.8021  -5.7901  -5.7901  -5.7719  -5.7719  -5.7590  -5.7590
    -4.1625  -4.1625  -4.1290  -4.1290  -4.1103  -4.1103  -4.0689  -4.0689
    -3.7867  -3.7867  -3.7863  -3.7863   6.2269   6.2269   6.2276   6.2276
     6.4457   6.4457   6.4524   6.4524   6.6845   6.6845   6.6997   6.6997
     6.9894   6.9894   7.0139   7.0139   7.0879   7.0879   7.0963   7.0963
     7.4402   7.4402   7.4412   7.4412   9.2401   9.2401   9.3052   9.3052
     9.3072   9.3072   9.3604   9.3604   9.6512   9.6512   9.6530   9.6530
    13.6925  13.6925  13.7014  13.7014  13.8350  13.8350  13.8403  13.8403
    13.9064  13.9064  13.9185  13.9185  17.6526  17.6526  17.6748  17.6748
    17.7574  17.7575  17.7848  17.7848  17.8180

          k = 0.1000 0.5000 0.3536 ( 18516 PWs)   bands (ev):

   -48.9266 -48.9265 -48.9265 -48.9265 -23.2093 -23.2093 -23.2089 -23.2089
   -23.2024 -23.2024 -23.2021 -23.2021 -23.1802 -23.1802 -23.1800 -23.1800
   -22.1039 -22.1039 -22.1039 -22.1039  -6.4095  -6.4095  -6.4078  -6.4078
    -5.8059  -5.8059  -5.7773  -5.7773  -5.7648  -5.7648  -5.7365  -5.7365
    -4.1763  -4.1763  -4.1479  -4.1479  -4.0752  -4.0752  -4.0314  -4.0314
    -3.7885  -3.7885  -3.7873  -3.7873   6.1163   6.1163   6.1166   6.1166
     6.3696   6.3696   6.3764   6.3764   6.7653   6.7653   6.7823   6.7823
     6.9257   6.9257   6.9503   6.9503   7.1289   7.1289   7.1372   7.1372
     7.6085   7.6085   7.6140   7.6140   9.1778   9.1778   9.2436   9.2436
     9.2937   9.2937   9.3344   9.3344   9.6378   9.6378   9.6455   9.6455
    13.6058  13.6058  13.6164  13.6164  13.8812  13.8812  13.8851  13.8851
    14.0102  14.0102  14.0189  14.0189  17.6311  17.6311  17.7090  17.7090
    17.7235  17.7235  17.7704  17.7704  17.8648

          k = 0.1500 0.5000 0.3536 ( 18532 PWs)   bands (ev):

   -48.9266 -48.9265 -48.9265 -48.9265 -23.2155 -23.2155 -23.2153 -23.2153
   -23.2025 -23.2025 -23.2024 -23.2024 -23.1738 -23.1738 -23.1736 -23.1736
   -22.1037 -22.1037 -22.1037 -22.1037  -6.4476  -6.4476  -6.4445  -6.4445
    -5.8119  -5.8119  -5.7856  -5.7856  -5.7296  -5.7296  -5.7052  -5.7052
    -4.1810  -4.1810  -4.1583  -4.1583  -4.0374  -4.0374  -3.9923  -3.9923
    -3.7909  -3.7909  -3.7883  -3.7883   5.9583   5.9583   5.9591   5.9591
     6.3234   6.3234   6.3335   6.3335   6.7661   6.7661   6.7817   6.7817
     6.9368   6.9368   6.9588   6.9588   7.1861   7.1861   7.1970   7.1970
     7.8076   7.8076   7.8195   7.8195   9.1046   9.1046   9.1678   9.1678
     9.2402   9.2402   9.2669   9.2669   9.6275   9.6275   9.6415   9.6415
    13.5242  13.5242  13.5346  13.5346  13.9511  13.9511  13.9543  13.9543
    14.1176  14.1176  14.1232  14.1232  17.4959  17.4959  17.5253  17.5253
    17.7746  17.7746  17.7978  17.7980  17.8491

          k = 0.2000 0.5000 0.3536 ( 18496 PWs)   bands (ev):

   -48.9266 -48.9265 -48.9265 -48.9265 -23.2216 -23.2216 -23.2215 -23.2215
   -23.2024 -23.2024 -23.2023 -23.2023 -23.1679 -23.1679 -23.1678 -23.1678
   -22.1035 -22.1035 -22.1035 -22.1035  -6.4903  -6.4903  -6.4862  -6.4862
    -5.8194  -5.8194  -5.7960  -5.7960  -5.6908  -5.6908  -5.6707  -5.6707
    -4.1771  -4.1771  -4.1601  -4.1601  -4.0003  -4.0003  -3.9553  -3.9553
    -3.7925  -3.7925  -3.7885  -3.7885   5.7944   5.7944   5.7957   5.7957
     6.2789   6.2789   6.2928   6.2928   6.7284   6.7284   6.7406   6.7406
     6.9975   6.9975   7.0165   7.0165   7.2513   7.2513   7.2643   7.2643
     8.0139   8.0139   8.0333   8.0333   9.0233   9.0233   9.0781   9.0781
     9.1559   9.1559   9.1728   9.1728   9.6237   9.6237   9.6412   9.6412
    13.4502  13.4502  13.4594  13.4594  14.0355  14.0355  14.0382  14.0382
    14.2239  14.2239  14.2264  14.2264  17.2805  17.2805  17.2938  17.2938
    17.8167  17.8167  17.8231  17.8231  17.9039

          k = 0.2500 0.5000 0.3536 ( 18516 PWs)   bands (ev):

   -48.9266 -48.9265 -48.9265 -48.9265 -23.2270 -23.2270 -23.2270 -23.2270
   -23.2023 -23.2023 -23.2022 -23.2022 -23.1627 -23.1627 -23.1626 -23.1626
   -22.1032 -22.1032 -22.1032 -22.1032  -6.5326  -6.5326  -6.5282  -6.5282
    -5.8275  -5.8275  -5.8075  -5.8075  -5.6531  -5.6531  -5.6371  -5.6371
    -4.1659  -4.1659  -4.1542  -4.1542  -3.9679  -3.9679  -3.9253  -3.9253
    -3.7910  -3.7910  -3.7862  -3.7862   5.6421   5.6421   5.6436   5.6436
     6.2306   6.2306   6.2468   6.2468   6.6974   6.6974   6.7058   6.7058
     7.0696   7.0696   7.0864   7.0864   7.3152   7.3152   7.3286   7.3286
     8.2105   8.2105   8.2393   8.2393   8.9308   8.9308   8.9673   8.9673
     9.0649   9.0649   9.0796   9.0796   9.6238   9.6238   9.6414   9.6414
    13.3848  13.3848  13.3924  13.3924  14.1245  14.1246  14.1271  14.1271
    14.3243  14.3243  14.3245  14.3245  17.0576  17.0576  17.0646  17.0646
    17.8538  17.8538  17.8581  17.8581  17.9875

          k = 0.3000 0.5000 0.3536 ( 18500 PWs)   bands (ev):

   -48.9266 -48.9265 -48.9265 -48.9265 -23.2318 -23.2318 -23.2317 -23.2317
   -23.2021 -23.2021 -23.2020 -23.2020 -23.1582 -23.1582 -23.1581 -23.1581
   -22.1029 -22.1029 -22.1029 -22.1029  -6.5709  -6.5709  -6.5668  -6.5668
    -5.8353  -5.8353  -5.8190  -5.8190  -5.6197  -5.6197  -5.6076  -5.6076
    -4.1494  -4.1494  -4.1425  -4.1425  -3.9440  -3.9440  -3.9071  -3.9071
    -3.7835  -3.7835  -3.7797  -3.7797   5.5098   5.5098   5.5111   5.5111
     6.1821   6.1821   6.1981   6.1981   6.6772   6.6772   6.6827   6.6827
     7.1478   7.1478   7.1631   7.1631   7.3720   7.3720   7.3836   7.3836
     8.3797   8.3797   8.4224   8.4224   8.8256   8.8256   8.8387   8.8387
     8.9939   8.9939   9.0059   9.0059   9.6252   9.6252   9.6408   9.6408
    13.3293  13.3293  13.3352  13.3352  14.2092  14.2092  14.2118  14.2118
    14.4128  14.4128  14.4149  14.4149  16.8520  16.8520  16.8557  16.8557
    17.8908  17.8908  17.8976  17.8976  18.0847

          k = 0.3500 0.5000 0.3536 ( 18524 PWs)   bands (ev):

   -48.9266 -48.9265 -48.9265 -48.9265 -23.2356 -23.2356 -23.2355 -23.2355
   -23.2020 -23.2019 -23.2019 -23.2019 -23.1547 -23.1547 -23.1546 -23.1546
   -22.1026 -22.1026 -22.1026 -22.1026  -6.6028  -6.6028  -6.5993  -6.5993
    -5.8420  -5.8420  -5.8297  -5.8297  -5.5923  -5.5923  -5.5837  -5.5837
    -4.1305  -4.1305  -4.1274  -4.1274  -3.9303  -3.9303  -3.9021  -3.9021
    -3.7703  -3.7703  -3.7690  -3.7690   5.4026   5.4026   5.4036   5.4036
     6.1386   6.1386   6.1525   6.1525   6.6649   6.6649   6.6685   6.6685
     7.2285   7.2285   7.2429   7.2429   7.4181   7.4181   7.4259   7.4259
     8.4918   8.4918   8.5551   8.5551   8.7231   8.7231   8.7339   8.7339
     8.9531   8.9531   8.9545   8.9545   9.6266   9.6266   9.6391   9.6391
    13.2848  13.2848  13.2891  13.2891  14.2821  14.2821  14.2847  14.2847
    14.4875  14.4875  14.4906  14.4906  16.6772  16.6772  16.6790  16.6790
    17.9264  17.9264  17.9353  17.9353  18.1892

          k = 0.4000 0.5000 0.3536 ( 18540 PWs)   bands (ev):

   -48.9266 -48.9265 -48.9265 -48.9265 -23.2384 -23.2384 -23.2383 -23.2383
   -23.2018 -23.2018 -23.2017 -23.2017 -23.1521 -23.1521 -23.1520 -23.1520
   -22.1024 -22.1024 -22.1024 -22.1024  -6.6264  -6.6264  -6.6239  -6.6239
    -5.8468  -5.8468  -5.8386  -5.8386  -5.5720  -5.5720  -5.5665  -5.5665
    -4.1127  -4.1127  -4.1120  -4.1120  -3.9247  -3.9247  -3.9058  -3.9058
    -3.7568  -3.7568  -3.7563  -3.7563   5.3238   5.3238   5.3245   5.3245
     6.1050   6.1050   6.1151   6.1151   6.6580   6.6580   6.6601   6.6601
     7.3043   7.3043   7.3174   7.3174   7.4514   7.4514   7.4545   7.4545
     8.4964   8.4964   8.5409   8.5409   8.7143   8.7143   8.7185   8.7185
     8.9315   8.9315   8.9426   8.9426   9.6280   9.6280   9.6366   9.6366
    13.2525  13.2525  13.2552  13.2552  14.3378  14.3378  14.3400  14.3401
    14.5445  14.5445  14.5474  14.5474  16.5438  16.5438  16.5444  16.5444
    17.9574  17.9574  17.9660  17.9660  18.2936

          k = 0.4500 0.5000 0.3536 ( 18540 PWs)   bands (ev):

   -48.9266 -48.9265 -48.9265 -48.9265 -23.2401 -23.2401 -23.2401 -23.2401
   -23.2017 -23.2017 -23.2017 -23.2017 -23.1505 -23.1505 -23.1504 -23.1504
   -22.1023 -22.1023 -22.1023 -22.1023  -6.6407  -6.6407  -6.6394  -6.6394
    -5.8491  -5.8491  -5.8450  -5.8450  -5.5593  -5.5593  -5.5566  -5.5566
    -4.1001  -4.1001  -4.0999  -4.0999  -3.9224  -3.9224  -3.9128  -3.9128
    -3.7472  -3.7472  -3.7464  -3.7464   5.2757   5.2757   5.2761   5.2761
     6.0847   6.0847   6.0900   6.0900   6.6546   6.6546   6.6556   6.6556
     7.3632   7.3632   7.3724   7.3724   7.4700   7.4700   7.4706   7.4706
     8.4480   8.4480   8.4656   8.4656   8.7346   8.7346   8.7474   8.7474
     8.9397   8.9397   8.9506   8.9506   9.6295   9.6295   9.6339   9.6339
    13.2330  13.2330  13.2343  13.2343  14.3729  14.3729  14.3742  14.3742
    14.5806  14.5806  14.5824  14.5824  16.4601  16.4601  16.4602  16.4602
    17.9796  17.9796  17.9849  17.9849  18.3857

          k = 0.5000 0.5000 0.3536 ( 18616 PWs)   bands (ev):

   -48.9266 -48.9265 -48.9265 -48.9265 -23.2407 -23.2407 -23.2406 -23.2406
   -23.2017 -23.2017 -23.2016 -23.2016 -23.1500 -23.1500 -23.1499 -23.1499
   -22.1022 -22.1022 -22.1022 -22.1022  -6.6451  -6.6451  -6.6451  -6.6451
    -5.8486  -5.8485  -5.8485  -5.8485  -5.5541  -5.5541  -5.5541  -5.5541
    -4.0954  -4.0954  -4.0954  -4.0954  -3.9190  -3.9190  -3.9190  -3.9190
    -3.7432  -3.7432  -3.7432  -3.7432   5.2596   5.2596   5.2597   5.2597
     6.0795   6.0795   6.0795   6.0795   6.6539   6.6539   6.6539   6.6539
     7.3898   7.3898   7.3898   7.3898   7.4754   7.4754   7.4754   7.4754
     8.4302   8.4302   8.4303   8.4303   8.7477   8.7477   8.7477   8.7477
     8.9530   8.9530   8.9531   8.9531   9.6314   9.6314   9.6315   9.6315
    13.2269  13.2269  13.2269  13.2269  14.3853  14.3853  14.3853  14.3854
    14.5935  14.5935  14.5936  14.5936  16.4315  16.4315  16.4315  16.4315
    17.9896  17.9896  17.9896  17.9896  18.4349

          k = 0.4500 0.4500 0.3536 ( 18510 PWs)   bands (ev):

   -48.9266 -48.9265 -48.9265 -48.9264 -23.2405 -23.2404 -23.2386 -23.2386
   -23.2019 -23.2018 -23.2016 -23.2015 -23.1520 -23.1519 -23.1501 -23.1500
   -22.1026 -22.1026 -22.1020 -22.1020  -6.6425  -6.6425  -6.6277  -6.6276
    -5.8515  -5.8515  -5.8395  -5.8395  -5.5702  -5.5701  -5.5532  -5.5532
    -4.1120  -4.1120  -4.0965  -4.0965  -3.9244  -3.9243  -3.9084  -3.9084
    -3.7519  -3.7519  -3.7491  -3.7491   5.2596   5.2597   5.3242   5.3242
     6.0858   6.0858   6.1044   6.1045   6.6537   6.6537   6.6590   6.6590
     7.3019   7.3019   7.3926   7.3927   7.4393   7.4393   7.4958   7.4958
     8.4287   8.4287   8.5332   8.5333   8.6932   8.6932   8.7570   8.7570
     8.9318   8.9318   8.9595   8.9595   9.6296   9.6296   9.6341   9.6341
    13.2234  13.2234  13.2576  13.2577  14.3281  14.3282  14.3949  14.3949
    14.5427  14.5427  14.5980  14.5980  16.4267  16.4268  16.5483  16.5484
    17.9409  17.9409  18.0103  18.0103  18.3565

          k = 0.4000 0.4000 0.3536 ( 18500 PWs)   bands (ev):

   -48.9267 -48.9266 -48.9264 -48.9263 -23.2398 -23.2397 -23.2326 -23.2325
   -23.2025 -23.2024 -23.2013 -23.2013 -23.1578 -23.1578 -23.1503 -23.1502
   -22.1038 -22.1038 -22.1013 -22.1013  -6.6362  -6.6362  -6.5768  -6.5768
    -5.8585  -5.8585  -5.8140  -5.8140  -5.6155  -5.6154  -5.5510  -5.5510
    -4.1508  -4.1508  -4.0997  -4.0997  -3.9352  -3.9352  -3.8912  -3.8912
    -3.7768  -3.7768  -3.7663  -3.7663   5.2595   5.2596   5.5106   5.5107
     6.1036   6.1036   6.1762   6.1762   6.6531   6.6531   6.6768   6.6768
     7.1077   7.1078   7.3282   7.3282   7.4151   7.4151   7.5554   7.5554
     8.4196   8.4196   8.4544   8.4545   8.7515   8.7515   8.7933   8.7933
     8.9652   8.9652   8.9867   8.9867   9.6272   9.6272   9.6374   9.6374
    13.2130  13.2131  13.3497  13.3497  14.1611  14.1612  14.3747  14.3747
    14.4497  14.4498  14.6128  14.6129  16.4114  16.4114  16.8676  16.8677
    17.8132  17.8132  18.0681  18.0681  18.2102

          k = 0.3500 0.3500 0.3536 ( 18512 PWs)   bands (ev):

   -48.9268 -48.9267 -48.9263 -48.9262 -23.2388 -23.2387 -23.2233 -23.2232
   -23.2033 -23.2033 -23.2009 -23.2008 -23.1669 -23.1668 -23.1507 -23.1506
   -22.1057 -22.1057 -22.1003 -22.1003  -6.6306  -6.6306  -6.4967  -6.4966
    -5.8675  -5.8675  -5.7736  -5.7736  -5.6823  -5.6822  -5.5485  -5.5484
    -4.1956  -4.1956  -4.1048  -4.1048  -3.9507  -3.9507  -3.8793  -3.8793
    -3.8152  -3.8152  -3.7922  -3.7922   5.2594   5.2594   5.7971   5.7972
     6.1248   6.1248   6.2871   6.2871   6.6515   6.6515   6.7182   6.7182
     6.8965   6.8965   7.1705   7.1705   7.4438   7.4438   7.6467   7.6467
     8.0551   8.0551   8.4400   8.4401   8.7990   8.7990   8.9979   8.9979
     9.0462   9.0463   9.0821   9.0821   9.6173   9.6174   9.6452   9.6452
    13.1956  13.1957  13.4998  13.4999  13.9025  13.9026  14.1689  14.1690
    14.4994  14.4995  14.6379  14.6380  16.3827  16.3828  17.3100  17.3100
    17.6379  17.6379  18.0088  18.0088  18.1296

          k = 0.3000 0.3000 0.3536 ( 18536 PWs)   bands (ev):

   -48.9270 -48.9269 -48.9261 -48.9260 -23.2375 -23.2374 -23.2121 -23.2120
   -23.2038 -23.2037 -23.2004 -23.2003 -23.1783 -23.1783 -23.1512 -23.1511
   -22.1081 -22.1081 -22.0990 -22.0990  -6.6325  -6.6324  -6.3937  -6.3937
    -5.8757  -5.8757  -5.7591  -5.7590  -5.7206  -5.7206  -5.5467  -5.5467
    -4.2359  -4.2359  -4.1111  -4.1111  -3.9704  -3.9704  -3.8789  -3.8789
    -3.8626  -3.8626  -3.8220  -3.8220   5.2591   5.2591   6.1337   6.1337
     6.1425   6.1425   6.4152   6.4152   6.6471   6.6471   6.7158   6.7158
     6.8159   6.8159   6.9506   6.9506   7.4833   7.4834   7.6456   7.6457
     7.7629   7.7629   8.4640   8.4640   8.8274   8.8274   9.0413   9.0414
     9.1983   9.1983   9.3021   9.3021   9.5880   9.5880   9.6699   9.6699
    13.1670  13.1671  13.5784  13.5784  13.7032  13.7033  13.9201  13.9202
    14.5865  14.5865  14.6722  14.6722  16.3366  16.3367  17.4286  17.4286
    17.7457  17.7458  17.7765  17.7766  18.0682

          k = 0.2500 0.2500 0.3536 ( 18550 PWs)   bands (ev):

   -48.9272 -48.9271 -48.9259 -48.9258 -23.2360 -23.2360 -23.2073 -23.2072
   -23.1999 -23.1998 -23.1965 -23.1965 -23.1909 -23.1908 -23.1517 -23.1516
   -22.1108 -22.1108 -22.0976 -22.0976  -6.6485  -6.6485  -6.2760  -6.2760
    -5.8873  -5.8873  -5.8212  -5.8212  -5.6642  -5.6642  -5.5468  -5.5468
    -4.2652  -4.2652  -4.1180  -4.1180  -3.9963  -3.9962  -3.9128  -3.9128
    -3.8922  -3.8922  -3.8488  -3.8488   5.2584   5.2584   6.1091   6.1091
     6.4404   6.4404   6.5642   6.5642   6.5992   6.5992   6.5999   6.6000
     6.6748   6.6748   7.0262   7.0262   7.3202   7.3202   7.5326   7.5327
     7.8943   7.8944   8.5074   8.5074   8.8595   8.8595   9.1028   9.1029
     9.3129   9.3129   9.4802   9.4802   9.5291   9.5291   9.7467   9.7467
    13.0741  13.0741  13.2806  13.2806  13.6736  13.6737  13.9350  13.9351
    14.6832  14.6832  14.7316  14.7316  16.2659  16.2659  17.2166  17.2166
    17.4409  17.4409  17.8381  17.8381  18.0714

          k = 0.2000 0.2000 0.3536 ( 18542 PWs)   bands (ev):

   -48.9274 -48.9273 -48.9257 -48.9256 -23.2346 -23.2345 -23.2081 -23.2081
   -23.2035 -23.2034 -23.1992 -23.1991 -23.1836 -23.1836 -23.1522 -23.1521
   -22.1135 -22.1135 -22.0961 -22.0961  -6.6809  -6.6809  -6.1524  -6.1524
    -5.9244  -5.9243  -5.8365  -5.8365  -5.6109  -5.6109  -5.5493  -5.5492
    -4.2798  -4.2798  -4.1248  -4.1248  -4.0302  -4.0302  -3.9593  -3.9593
    -3.9176  -3.9176  -3.8669  -3.8669   5.2563   5.2564   6.0413   6.0414
     6.2358   6.2358   6.5249   6.5249   6.5573   6.5573   6.6394   6.6394
     6.8498   6.8498   7.1190   7.1190   7.3430   7.3430   7.5792   7.5792
     8.0285   8.0286   8.5608   8.5608   8.9173   8.9173   9.1872   9.1873
     9.4106   9.4106   9.4222   9.4222   9.5606   9.5606   9.8926   9.8927
    12.7614  12.7614  13.1865  13.1865  13.4607  13.4607  14.1832  14.1832
    14.7313  14.7313  14.8658  14.8658  16.1577  16.1578  17.0094  17.0094
    17.1407  17.1407  17.5857  17.5857  17.9387

          k = 0.1500 0.1500 0.3536 ( 18532 PWs)   bands (ev):

   -48.9276 -48.9275 -48.9255 -48.9254 -23.2333 -23.2332 -23.2148 -23.2147
   -23.2092 -23.2092 -23.1987 -23.1986 -23.1715 -23.1715 -23.1527 -23.1526
   -22.1160 -22.1160 -22.0948 -22.0948  -6.7242  -6.7241  -6.0324  -6.0323
    -5.9666  -5.9666  -5.8215  -5.8215  -5.5716  -5.5716  -5.5534  -5.5534
    -4.2793  -4.2793  -4.1308  -4.1308  -4.0688  -4.0688  -3.9957  -3.9957
    -3.9515  -3.9514  -3.8765  -3.8765   5.2504   5.2505   5.8647   5.8648
     5.9573   5.9573   6.5440   6.5440   6.5701   6.5701   6.6240   6.6240
     6.9963   6.9963   7.1382   7.1382   7.6215   7.6215   7.6724   7.6724
     8.1500   8.1500   8.5913   8.5914   9.0352   9.0352   9.2728   9.2728
     9.2952   9.2952   9.5017   9.5017   9.5887   9.5887  10.0379  10.0380
    12.3990  12.3991  13.1590  13.1590  13.3007  13.3007  14.4222  14.4222
    14.7646  14.7646  15.0237  15.0237  15.9944  15.9944  16.8251  16.8251
    16.8772  16.8772  17.2878  17.2879  17.7205

          k = 0.1000 0.1000 0.3536 ( 18540 PWs)   bands (ev):

   -48.9277 -48.9276 -48.9254 -48.9253 -23.2323 -23.2322 -23.2237 -23.2236
   -23.2102 -23.2101 -23.1983 -23.1982 -23.1619 -23.1618 -23.1531 -23.1530
   -22.1179 -22.1179 -22.0938 -22.0938  -6.7670  -6.7669  -5.9999  -5.9998
    -5.9221  -5.9221  -5.8003  -5.8003  -5.5581  -5.5580  -5.5539  -5.5539
    -4.2669  -4.2669  -4.1354  -4.1354  -4.1046  -4.1046  -4.0190  -4.0190
    -3.9884  -3.9884  -3.8806  -3.8806   5.2337   5.2338   5.5775   5.5776
     5.8849   5.8850   6.5583   6.5583   6.5846   6.5846   6.6089   6.6090
     6.9244   6.9244   7.4026   7.4026   7.6549   7.6549   7.9468   7.9469
     8.2446   8.2446   8.5803   8.5804   9.0115   9.0115   9.3003   9.3004
     9.4160   9.4160   9.5652   9.5652   9.6041   9.6041  10.1462  10.1462
    12.0783  12.0783  13.1431  13.1432  13.1985  13.1986  14.6246  14.6247
    14.7896  14.7897  15.1720  15.1721  15.7785  15.7785  16.6626  16.6627
    16.6855  16.6855  17.0509  17.0509  17.5392

          k = 0.0500 0.0500 0.3536 ( 18524 PWs)   bands (ev):

   -48.9278 -48.9277 -48.9253 -48.9252 -23.2316 -23.2316 -23.2294 -23.2293
   -23.2108 -23.2107 -23.1980 -23.1979 -23.1556 -23.1555 -23.1533 -23.1532
   -22.1192 -22.1192 -22.0931 -22.0931  -6.7979  -6.7978  -6.0178  -6.0177
    -5.8397  -5.8397  -5.7839  -5.7838  -5.5616  -5.5616  -5.5564  -5.5563
    -4.2503  -4.2503  -4.1383  -4.1383  -4.1298  -4.1298  -4.0304  -4.0304
    -4.0197  -4.0197  -3.8818  -3.8818   5.1949   5.1949   5.4210   5.4211
     5.8380   5.8381   6.5684   6.5684   6.5840   6.5840   6.6062   6.6062
     6.8875   6.8876   7.6051   7.6052   7.6762   7.6762   8.1715   8.1715
     8.3035   8.3035   8.5369   8.5369   8.8099   8.8099   9.4835   9.4836
     9.5200   9.5201   9.6035   9.6036   9.6128   9.6128  10.2109  10.2109
    11.8500  11.8500  13.1339  13.1340  13.1465  13.1466  14.7614  14.7615
    14.8054  14.8055  15.2796  15.2797  15.5780  15.5780  16.5296  16.5296
    16.5916  16.5916  16.9233  16.9233  17.4168

          k = 0.0000 0.0000 0.3536 ( 18458 PWs)   bands (ev):

   -48.9278 -48.9278 -48.9252 -48.9252 -23.2317 -23.2316 -23.2311 -23.2310
   -23.2110 -23.2109 -23.1979 -23.1978 -23.1537 -23.1536 -23.1531 -23.1531
   -22.1197 -22.1197 -22.0929 -22.0929  -6.8091  -6.8090  -6.0237  -6.0236
    -5.8051  -5.8051  -5.7790  -5.7790  -5.5640  -5.5640  -5.5612  -5.5611
    -4.2422  -4.2422  -4.1402  -4.1402  -4.1379  -4.1379  -4.0350  -4.0349
    -4.0314  -4.0314  -3.8821  -3.8821   5.1670   5.1670   5.3817   5.3818
     5.8219   5.8220   6.5701   6.5701   6.5822   6.5823   6.6082   6.6082
     6.8764   6.8764   7.6833   7.6834   7.6837   7.6837   8.3227   8.3227
     8.3240   8.3240   8.4658   8.4658   8.7036   8.7037   9.5621   9.5622
     9.5643   9.5644   9.6141   9.6141   9.6163   9.6163  10.2323  10.2323
    11.7654  11.7655  13.1295  13.1295  13.1328  13.1329  14.8053  14.8054
    14.8151  14.8152  15.3192  15.3193  15.4956  15.4956  16.4835  16.4835
    16.5599  16.5599  16.8850  16.8851  17.3733

     Writing all to output data dir ./out/smo.save/ :
     XML data file, pseudopotentials, collected wavefunctions

     init_run     :      2.07s CPU      2.63s WALL (       1 calls)
     electrons    :    109.91s CPU    124.34s WALL (       1 calls)

     Called by init_run:
     wfcinit      :      0.00s CPU      0.24s WALL (       1 calls)
     wfcinit:atom :      0.02s CPU      0.02s WALL (       1 calls)
     wfcinit:wfcr :      2.03s CPU      2.05s WALL (       1 calls)
     potinit      :      0.35s CPU      0.54s WALL (       1 calls)
     hinit0       :      1.47s CPU      1.52s WALL (       1 calls)

     Called by electrons:
     c_bands      :    109.91s CPU    118.90s WALL (       1 calls)
     v_of_rho     :      0.19s CPU      0.22s WALL (       1 calls)
     v_h          :      0.08s CPU      0.11s WALL (       1 calls)
     v_xc         :      0.11s CPU      0.12s WALL (       1 calls)
     newd         :      0.08s CPU      0.08s WALL (       1 calls)
     PAW_pot      :      0.03s CPU      0.03s WALL (       1 calls)

     Called by c_bands:
     init_us_2    :      0.06s CPU      0.10s WALL (       1 calls)
     cegterg      :    105.75s CPU    106.46s WALL (       6 calls)

     Called by sum_band:

     Called by *egterg:
     cdiaghg      :      1.72s CPU      1.72s WALL (     121 calls)
     cegterg:over :      9.47s CPU      9.50s WALL (     120 calls)
     cegterg:upda :      6.19s CPU      6.23s WALL (     120 calls)
     cegterg:last :     14.92s CPU     14.99s WALL (      45 calls)
     h_psi        :     66.76s CPU     67.20s WALL (     127 calls)
     s_psi        :      7.16s CPU      7.19s WALL (     127 calls)
     g_psi        :      0.24s CPU      0.24s WALL (     120 calls)

     Called by h_psi:
     h_psi:calbec :      6.41s CPU      6.44s WALL (     127 calls)
     vloc_psi     :     52.80s CPU     53.11s WALL (     127 calls)
                                        0.00s GPU  (     127 calls)
     add_vuspsi   :      7.29s CPU      7.32s WALL (     127 calls)

     General routines
     calbec       :      6.41s CPU      6.44s WALL (     127 calls)
     fft          :      0.18s CPU      0.18s WALL (       6 calls)
     ffts         :      0.01s CPU      0.01s WALL (       1 calls)
     fftw         :     46.87s CPU     47.15s WALL (    9600 calls)
     interpolate  :      0.05s CPU      0.07s WALL (       1 calls)
     davcio       :      0.00s CPU      5.48s WALL (       2 calls)

     Parallel routines

     PAW routines
     PAW_pot      :      0.03s CPU      0.03s WALL (       1 calls)

     PWSCF        :   1m52.47s CPU   2m13.54s WALL


   This run was terminated on:  20:38:37  29Nov2025            

=------------------------------------------------------------------------------=
   JOB DONE.
=------------------------------------------------------------------------------=
