
             +---------------------------------------------------+
             |                                                   |
             |                   WANNIER90                       |
             |                                                   |
             +---------------------------------------------------+
             |                                                   |
             |        Welcome to the Maximally-Localized         |
             |        Generalized Wannier Functions code         |
             |            http://www.wannier.org                 |
             |                                                   |
             |                                                   |
             |  Wannier90 Developer Group:                       |
             |    Giovanni Pizzi    (Paul Scherrer Institute)    |
             |    Valerio Vitale    (University of Trieste)      |
             |    David Vanderbilt  (Rutgers University)         |
             |    Nicola Marzari    (EPFL)                       |
             |    Ivo Souza         (Universidad del Pais Vasco) |
             |    Arash A. Mostofi  (Imperial College London)    |
             |    Jonathan R. Yates (University of Oxford)       |
             |                                                   |
             |  For the full list of Wannier90 3.x authors,      |
             |  please check the code documentation and the      |
             |  README on the GitHub page of the code            |
             |                                                   |
             |                                                   |
             |  Please cite                                      |
             |                                                   |
             |  [ref] "Wannier90 as a community code:            |
             |        new features and applications",            |
             |        G. Pizzi et al., J. Phys. Cond. Matt. 32,  |
             |        165902 (2020).                             |
             |        http://doi.org/10.1088/1361-648X/ab51ff    |
             |                                                   |
             |  in any publications arising from the use of      |
             |  this code. For the method please cite            |
             |                                                   |
             |  [ref] "Maximally Localized Generalised Wannier   |
             |         Functions for Composite Energy Bands"     |
             |         N. Marzari and D. Vanderbilt              |
             |         Phys. Rev. B 56 12847 (1997)              |
             |                                                   |
             |  [ref] "Maximally Localized Wannier Functions     |
             |         for Entangled Energy Bands"               |
             |         I. Souza, N. Marzari and D. Vanderbilt    |
             |         Phys. Rev. B 65 035109 (2001)             |
             |                                                   |
             |                                                   |
             | Copyright (c) 1996-2020                           |
             |        The Wannier90 Developer Group and          |
             |        individual contributors                    |
             |                                                   |
             |      Release: 3.1.0        5th March    2020      |
             |                                                   |
             | This program is free software; you can            |
             | redistribute it and/or modify it under the terms  |
             | of the GNU General Public License as published by |
             | the Free Software Foundation; either version 2 of |
             | the License, or (at your option) any later version|
             |                                                   |
             | This program is distributed in the hope that it   |
             | will be useful, but WITHOUT ANY WARRANTY; without |
             | even the implied warranty of MERCHANTABILITY or   |
             | FITNESS FOR A PARTICULAR PURPOSE. See the GNU     |
             | General Public License for more details.          |
             |                                                   |
             | You should have received a copy of the GNU General|
             | Public License along with this program; if not,   |
             | write to the Free Software Foundation, Inc.,      |
             | 675 Mass Ave, Cambridge, MA 02139, USA.           |
             |                                                   |
             +---------------------------------------------------+
             |    Execution started on 29Nov2025 at 20:41:10     |
             +---------------------------------------------------+
 
 ******************************************************************************
 * -> Using CODATA 2006 constant values                                       *
 *    (http://physics.nist.gov/cuu/Constants/index.html)                      *
 * -> Using Bohr value from CODATA                                            *
 ******************************************************************************

 Running in parallel on 128 CPUs

                                    ------
                                    SYSTEM
                                    ------

                              Lattice Vectors (Ang)
                    a_1     5.613960   0.000000   0.000000
                    a_2     0.000000   5.613960   0.000000
                    a_3     0.000000   0.000000   7.939340

                   Unit Cell Volume:     250.22058  (Ang^3)

                        Reciprocal-Space Vectors (Ang^-1)
                    b_1     1.119207   0.000000   0.000000
                    b_2     0.000000   1.119207   0.000000
                    b_3     0.000000   0.000000   0.791399
  
 *----------------------------------------------------------------------------*
 |   Site       Fractional Coordinate          Cartesian Coordinate (Ang)     |
 +----------------------------------------------------------------------------+
 | sr   1   0.00000   0.50000   0.25000   |    0.00000   2.80698   1.98483    |
 | sr   2   0.00000   0.50000   0.75000   |    0.00000   2.80698   5.95450    |
 | sr   3   0.50000   0.00000   0.75000   |    2.80698   0.00000   5.95450    |
 | sr   4   0.50000   0.00000   0.25000   |    2.80698   0.00000   1.98483    |
 | mo   1   0.00000   0.00000   0.00000   |    0.00000   0.00000   0.00000    |
 | mo   2   0.00000   0.00000   0.50000   |    0.00000   0.00000   3.96967    |
 | mo   3   0.50000   0.50000   0.50000   |    2.80698   2.80698   3.96967    |
 | mo   4   0.50000   0.50000   0.00000   |    2.80698   2.80698   0.00000    |
 | o    1   0.25000   0.75000  -0.00445   |    1.40349   4.21047  -0.03535    |
 | o    2   0.25000   0.25000   0.00445   |    1.40349   1.40349   0.03535    |
 | o    3   0.75000   0.25000   0.49555   |    4.21047   1.40349   3.93432    |
 | o    4   0.75000   0.75000   0.50445   |    4.21047   4.21047   4.00502    |
 | o    5   0.75000   0.25000   0.00445   |    4.21047   1.40349   0.03535    |
 | o    6   0.75000   0.75000  -0.00445   |    4.21047   4.21047  -0.03535    |
 | o    7   0.25000   0.75000   0.50445   |    1.40349   4.21047   4.00502    |
 | o    8   0.25000   0.25000   0.49555   |    1.40349   1.40349   3.93432    |
 | o    9   0.00000  -0.00891   0.25000   |    0.00000  -0.05000   1.98483    |
 | o   10   0.00000   0.00891   0.75000   |    0.00000   0.05000   5.95450    |
 | o   11   0.50000   0.49109   0.75000   |    2.80698   2.75698   5.95450    |
 | o   12   0.50000   0.50891   0.25000   |    2.80698   2.85698   1.98483    |
 *----------------------------------------------------------------------------*
                                -----------
                                PROJECTIONS
                                -----------
  
 +----------------------------------------------------------------------------+
 |     Frac. Coord.   l mr  r        z-axis               x-axis          Z/a |
 +----------------------------------------------------------------------------+
 |  0.00  0.00  0.00  2  2  1  0.000  0.000  1.000  0.707  0.707  0.000   1.0 |
 |  0.00  0.00  0.00  2  3  1  0.000  0.000  1.000  0.707  0.707  0.000   1.0 |
 |  0.00  0.00  0.00  2  5  1  0.000  0.000  1.000  0.707  0.707  0.000   1.0 |
 |  0.00  0.00  0.50  2  2  1  0.000  0.000  1.000  0.707  0.707  0.000   1.0 |
 |  0.00  0.00  0.50  2  3  1  0.000  0.000  1.000  0.707  0.707  0.000   1.0 |
 |  0.00  0.00  0.50  2  5  1  0.000  0.000  1.000  0.707  0.707  0.000   1.0 |
 |  0.50  0.50  0.50  2  2  1  0.000  0.000  1.000  0.707  0.707  0.000   1.0 |
 |  0.50  0.50  0.50  2  3  1  0.000  0.000  1.000  0.707  0.707  0.000   1.0 |
 |  0.50  0.50  0.50  2  5  1  0.000  0.000  1.000  0.707  0.707  0.000   1.0 |
 |  0.50  0.50  0.00  2  2  1  0.000  0.000  1.000  0.707  0.707  0.000   1.0 |
 |  0.50  0.50  0.00  2  3  1  0.000  0.000  1.000  0.707  0.707  0.000   1.0 |
 |  0.50  0.50  0.00  2  5  1  0.000  0.000  1.000  0.707  0.707  0.000   1.0 |
 |  0.00  0.00  0.00  2  1  1  0.000  0.000  1.000  0.707  0.707  0.000   1.0 |
 |  0.00  0.00  0.00  2  4  1  0.000  0.000  1.000  0.707  0.707  0.000   1.0 |
 |  0.00  0.00  0.50  2  1  1  0.000  0.000  1.000  0.707  0.707  0.000   1.0 |
 |  0.00  0.00  0.50  2  4  1  0.000  0.000  1.000  0.707  0.707  0.000   1.0 |
 |  0.50  0.50  0.50  2  1  1  0.000  0.000  1.000  0.707  0.707  0.000   1.0 |
 |  0.50  0.50  0.50  2  4  1  0.000  0.000  1.000  0.707  0.707  0.000   1.0 |
 |  0.50  0.50  0.00  2  1  1  0.000  0.000  1.000  0.707  0.707  0.000   1.0 |
 |  0.50  0.50  0.00  2  4  1  0.000  0.000  1.000  0.707  0.707  0.000   1.0 |
 |  0.25  0.75 -0.00  1  1  1  0.000  0.000  1.000  1.000  0.000  0.000   1.0 |
 |  0.25  0.75 -0.00  1  2  1  0.000  0.000  1.000  1.000  0.000  0.000   1.0 |
 |  0.25  0.75 -0.00  1  3  1  0.000  0.000  1.000  1.000  0.000  0.000   1.0 |
 |  0.25  0.25  0.00  1  1  1  0.000  0.000  1.000  1.000  0.000  0.000   1.0 |
 |  0.25  0.25  0.00  1  2  1  0.000  0.000  1.000  1.000  0.000  0.000   1.0 |
 |  0.25  0.25  0.00  1  3  1  0.000  0.000  1.000  1.000  0.000  0.000   1.0 |
 |  0.75  0.25  0.50  1  1  1  0.000  0.000  1.000  1.000  0.000  0.000   1.0 |
 |  0.75  0.25  0.50  1  2  1  0.000  0.000  1.000  1.000  0.000  0.000   1.0 |
 |  0.75  0.25  0.50  1  3  1  0.000  0.000  1.000  1.000  0.000  0.000   1.0 |
 |  0.75  0.75  0.50  1  1  1  0.000  0.000  1.000  1.000  0.000  0.000   1.0 |
 |  0.75  0.75  0.50  1  2  1  0.000  0.000  1.000  1.000  0.000  0.000   1.0 |
 |  0.75  0.75  0.50  1  3  1  0.000  0.000  1.000  1.000  0.000  0.000   1.0 |
 |  0.75  0.25  0.00  1  1  1  0.000  0.000  1.000  1.000  0.000  0.000   1.0 |
 |  0.75  0.25  0.00  1  2  1  0.000  0.000  1.000  1.000  0.000  0.000   1.0 |
 |  0.75  0.25  0.00  1  3  1  0.000  0.000  1.000  1.000  0.000  0.000   1.0 |
 |  0.75  0.75 -0.00  1  1  1  0.000  0.000  1.000  1.000  0.000  0.000   1.0 |
 |  0.75  0.75 -0.00  1  2  1  0.000  0.000  1.000  1.000  0.000  0.000   1.0 |
 |  0.75  0.75 -0.00  1  3  1  0.000  0.000  1.000  1.000  0.000  0.000   1.0 |
 |  0.25  0.75  0.50  1  1  1  0.000  0.000  1.000  1.000  0.000  0.000   1.0 |
 |  0.25  0.75  0.50  1  2  1  0.000  0.000  1.000  1.000  0.000  0.000   1.0 |
 |  0.25  0.75  0.50  1  3  1  0.000  0.000  1.000  1.000  0.000  0.000   1.0 |
 |  0.25  0.25  0.50  1  1  1  0.000  0.000  1.000  1.000  0.000  0.000   1.0 |
 |  0.25  0.25  0.50  1  2  1  0.000  0.000  1.000  1.000  0.000  0.000   1.0 |
 |  0.25  0.25  0.50  1  3  1  0.000  0.000  1.000  1.000  0.000  0.000   1.0 |
 |  0.00 -0.01  0.25  1  1  1  0.000  0.000  1.000  1.000  0.000  0.000   1.0 |
 |  0.00 -0.01  0.25  1  2  1  0.000  0.000  1.000  1.000  0.000  0.000   1.0 |
 |  0.00 -0.01  0.25  1  3  1  0.000  0.000  1.000  1.000  0.000  0.000   1.0 |
 |  0.00  0.01  0.75  1  1  1  0.000  0.000  1.000  1.000  0.000  0.000   1.0 |
 |  0.00  0.01  0.75  1  2  1  0.000  0.000  1.000  1.000  0.000  0.000   1.0 |
 |  0.00  0.01  0.75  1  3  1  0.000  0.000  1.000  1.000  0.000  0.000   1.0 |
 |  0.50  0.49  0.75  1  1  1  0.000  0.000  1.000  1.000  0.000  0.000   1.0 |
 |  0.50  0.49  0.75  1  2  1  0.000  0.000  1.000  1.000  0.000  0.000   1.0 |
 |  0.50  0.49  0.75  1  3  1  0.000  0.000  1.000  1.000  0.000  0.000   1.0 |
 |  0.50  0.51  0.25  1  1  1  0.000  0.000  1.000  1.000  0.000  0.000   1.0 |
 |  0.50  0.51  0.25  1  2  1  0.000  0.000  1.000  1.000  0.000  0.000   1.0 |
 |  0.50  0.51  0.25  1  3  1  0.000  0.000  1.000  1.000  0.000  0.000   1.0 |
 +----------------------------------------------------------------------------+
  
                                ------------
                                K-POINT GRID
                                ------------
  
             Grid size =  5 x  5 x  5      Total points =  125
  
 *----------------------------------------------------------------------------*
 | k-point      Fractional Coordinate        Cartesian Coordinate (Ang^-1)    |
 +----------------------------------------------------------------------------+
 |     1    0.00000   0.00000   0.00000   |    0.00000   0.00000   0.00000    |
 |     2    0.00000   0.00000   0.20000   |    0.00000   0.00000   0.15828    |
 |     3    0.00000   0.00000   0.40000   |    0.00000   0.00000   0.31656    |
 |     4    0.00000   0.00000   0.60000   |    0.00000   0.00000   0.47484    |
 |     5    0.00000   0.00000   0.80000   |    0.00000   0.00000   0.63312    |
 |     6    0.00000   0.20000   0.00000   |    0.00000   0.22384   0.00000    |
 |     7    0.00000   0.20000   0.20000   |    0.00000   0.22384   0.15828    |
 |     8    0.00000   0.20000   0.40000   |    0.00000   0.22384   0.31656    |
 |     9    0.00000   0.20000   0.60000   |    0.00000   0.22384   0.47484    |
 |    10    0.00000   0.20000   0.80000   |    0.00000   0.22384   0.63312    |
 |    11    0.00000   0.40000   0.00000   |    0.00000   0.44768   0.00000    |
 |    12    0.00000   0.40000   0.20000   |    0.00000   0.44768   0.15828    |
 |    13    0.00000   0.40000   0.40000   |    0.00000   0.44768   0.31656    |
 |    14    0.00000   0.40000   0.60000   |    0.00000   0.44768   0.47484    |
 |    15    0.00000   0.40000   0.80000   |    0.00000   0.44768   0.63312    |
 |    16    0.00000   0.60000   0.00000   |    0.00000   0.67152   0.00000    |
 |    17    0.00000   0.60000   0.20000   |    0.00000   0.67152   0.15828    |
 |    18    0.00000   0.60000   0.40000   |    0.00000   0.67152   0.31656    |
 |    19    0.00000   0.60000   0.60000   |    0.00000   0.67152   0.47484    |
 |    20    0.00000   0.60000   0.80000   |    0.00000   0.67152   0.63312    |
 |    21    0.00000   0.80000   0.00000   |    0.00000   0.89537   0.00000    |
 |    22    0.00000   0.80000   0.20000   |    0.00000   0.89537   0.15828    |
 |    23    0.00000   0.80000   0.40000   |    0.00000   0.89537   0.31656    |
 |    24    0.00000   0.80000   0.60000   |    0.00000   0.89537   0.47484    |
 |    25    0.00000   0.80000   0.80000   |    0.00000   0.89537   0.63312    |
 |    26    0.20000   0.00000   0.00000   |    0.22384   0.00000   0.00000    |
 |    27    0.20000   0.00000   0.20000   |    0.22384   0.00000   0.15828    |
 |    28    0.20000   0.00000   0.40000   |    0.22384   0.00000   0.31656    |
 |    29    0.20000   0.00000   0.60000   |    0.22384   0.00000   0.47484    |
 |    30    0.20000   0.00000   0.80000   |    0.22384   0.00000   0.63312    |
 |    31    0.20000   0.20000   0.00000   |    0.22384   0.22384   0.00000    |
 |    32    0.20000   0.20000   0.20000   |    0.22384   0.22384   0.15828    |
 |    33    0.20000   0.20000   0.40000   |    0.22384   0.22384   0.31656    |
 |    34    0.20000   0.20000   0.60000   |    0.22384   0.22384   0.47484    |
 |    35    0.20000   0.20000   0.80000   |    0.22384   0.22384   0.63312    |
 |    36    0.20000   0.40000   0.00000   |    0.22384   0.44768   0.00000    |
 |    37    0.20000   0.40000   0.20000   |    0.22384   0.44768   0.15828    |
 |    38    0.20000   0.40000   0.40000   |    0.22384   0.44768   0.31656    |
 |    39    0.20000   0.40000   0.60000   |    0.22384   0.44768   0.47484    |
 |    40    0.20000   0.40000   0.80000   |    0.22384   0.44768   0.63312    |
 |    41    0.20000   0.60000   0.00000   |    0.22384   0.67152   0.00000    |
 |    42    0.20000   0.60000   0.20000   |    0.22384   0.67152   0.15828    |
 |    43    0.20000   0.60000   0.40000   |    0.22384   0.67152   0.31656    |
 |    44    0.20000   0.60000   0.60000   |    0.22384   0.67152   0.47484    |
 |    45    0.20000   0.60000   0.80000   |    0.22384   0.67152   0.63312    |
 |    46    0.20000   0.80000   0.00000   |    0.22384   0.89537   0.00000    |
 |    47    0.20000   0.80000   0.20000   |    0.22384   0.89537   0.15828    |
 |    48    0.20000   0.80000   0.40000   |    0.22384   0.89537   0.31656    |
 |    49    0.20000   0.80000   0.60000   |    0.22384   0.89537   0.47484    |
 |    50    0.20000   0.80000   0.80000   |    0.22384   0.89537   0.63312    |
 |    51    0.40000   0.00000   0.00000   |    0.44768   0.00000   0.00000    |
 |    52    0.40000   0.00000   0.20000   |    0.44768   0.00000   0.15828    |
 |    53    0.40000   0.00000   0.40000   |    0.44768   0.00000   0.31656    |
 |    54    0.40000   0.00000   0.60000   |    0.44768   0.00000   0.47484    |
 |    55    0.40000   0.00000   0.80000   |    0.44768   0.00000   0.63312    |
 |    56    0.40000   0.20000   0.00000   |    0.44768   0.22384   0.00000    |
 |    57    0.40000   0.20000   0.20000   |    0.44768   0.22384   0.15828    |
 |    58    0.40000   0.20000   0.40000   |    0.44768   0.22384   0.31656    |
 |    59    0.40000   0.20000   0.60000   |    0.44768   0.22384   0.47484    |
 |    60    0.40000   0.20000   0.80000   |    0.44768   0.22384   0.63312    |
 |    61    0.40000   0.40000   0.00000   |    0.44768   0.44768   0.00000    |
 |    62    0.40000   0.40000   0.20000   |    0.44768   0.44768   0.15828    |
 |    63    0.40000   0.40000   0.40000   |    0.44768   0.44768   0.31656    |
 |    64    0.40000   0.40000   0.60000   |    0.44768   0.44768   0.47484    |
 |    65    0.40000   0.40000   0.80000   |    0.44768   0.44768   0.63312    |
 |    66    0.40000   0.60000   0.00000   |    0.44768   0.67152   0.00000    |
 |    67    0.40000   0.60000   0.20000   |    0.44768   0.67152   0.15828    |
 |    68    0.40000   0.60000   0.40000   |    0.44768   0.67152   0.31656    |
 |    69    0.40000   0.60000   0.60000   |    0.44768   0.67152   0.47484    |
 |    70    0.40000   0.60000   0.80000   |    0.44768   0.67152   0.63312    |
 |    71    0.40000   0.80000   0.00000   |    0.44768   0.89537   0.00000    |
 |    72    0.40000   0.80000   0.20000   |    0.44768   0.89537   0.15828    |
 |    73    0.40000   0.80000   0.40000   |    0.44768   0.89537   0.31656    |
 |    74    0.40000   0.80000   0.60000   |    0.44768   0.89537   0.47484    |
 |    75    0.40000   0.80000   0.80000   |    0.44768   0.89537   0.63312    |
 |    76    0.60000   0.00000   0.00000   |    0.67152   0.00000   0.00000    |
 |    77    0.60000   0.00000   0.20000   |    0.67152   0.00000   0.15828    |
 |    78    0.60000   0.00000   0.40000   |    0.67152   0.00000   0.31656    |
 |    79    0.60000   0.00000   0.60000   |    0.67152   0.00000   0.47484    |
 |    80    0.60000   0.00000   0.80000   |    0.67152   0.00000   0.63312    |
 |    81    0.60000   0.20000   0.00000   |    0.67152   0.22384   0.00000    |
 |    82    0.60000   0.20000   0.20000   |    0.67152   0.22384   0.15828    |
 |    83    0.60000   0.20000   0.40000   |    0.67152   0.22384   0.31656    |
 |    84    0.60000   0.20000   0.60000   |    0.67152   0.22384   0.47484    |
 |    85    0.60000   0.20000   0.80000   |    0.67152   0.22384   0.63312    |
 |    86    0.60000   0.40000   0.00000   |    0.67152   0.44768   0.00000    |
 |    87    0.60000   0.40000   0.20000   |    0.67152   0.44768   0.15828    |
 |    88    0.60000   0.40000   0.40000   |    0.67152   0.44768   0.31656    |
 |    89    0.60000   0.40000   0.60000   |    0.67152   0.44768   0.47484    |
 |    90    0.60000   0.40000   0.80000   |    0.67152   0.44768   0.63312    |
 |    91    0.60000   0.60000   0.00000   |    0.67152   0.67152   0.00000    |
 |    92    0.60000   0.60000   0.20000   |    0.67152   0.67152   0.15828    |
 |    93    0.60000   0.60000   0.40000   |    0.67152   0.67152   0.31656    |
 |    94    0.60000   0.60000   0.60000   |    0.67152   0.67152   0.47484    |
 |    95    0.60000   0.60000   0.80000   |    0.67152   0.67152   0.63312    |
 |    96    0.60000   0.80000   0.00000   |    0.67152   0.89537   0.00000    |
 |    97    0.60000   0.80000   0.20000   |    0.67152   0.89537   0.15828    |
 |    98    0.60000   0.80000   0.40000   |    0.67152   0.89537   0.31656    |
 |    99    0.60000   0.80000   0.60000   |    0.67152   0.89537   0.47484    |
 |   100    0.60000   0.80000   0.80000   |    0.67152   0.89537   0.63312    |
 |   101    0.80000   0.00000   0.00000   |    0.89537   0.00000   0.00000    |
 |   102    0.80000   0.00000   0.20000   |    0.89537   0.00000   0.15828    |
 |   103    0.80000   0.00000   0.40000   |    0.89537   0.00000   0.31656    |
 |   104    0.80000   0.00000   0.60000   |    0.89537   0.00000   0.47484    |
 |   105    0.80000   0.00000   0.80000   |    0.89537   0.00000   0.63312    |
 |   106    0.80000   0.20000   0.00000   |    0.89537   0.22384   0.00000    |
 |   107    0.80000   0.20000   0.20000   |    0.89537   0.22384   0.15828    |
 |   108    0.80000   0.20000   0.40000   |    0.89537   0.22384   0.31656    |
 |   109    0.80000   0.20000   0.60000   |    0.89537   0.22384   0.47484    |
 |   110    0.80000   0.20000   0.80000   |    0.89537   0.22384   0.63312    |
 |   111    0.80000   0.40000   0.00000   |    0.89537   0.44768   0.00000    |
 |   112    0.80000   0.40000   0.20000   |    0.89537   0.44768   0.15828    |
 |   113    0.80000   0.40000   0.40000   |    0.89537   0.44768   0.31656    |
 |   114    0.80000   0.40000   0.60000   |    0.89537   0.44768   0.47484    |
 |   115    0.80000   0.40000   0.80000   |    0.89537   0.44768   0.63312    |
 |   116    0.80000   0.60000   0.00000   |    0.89537   0.67152   0.00000    |
 |   117    0.80000   0.60000   0.20000   |    0.89537   0.67152   0.15828    |
 |   118    0.80000   0.60000   0.40000   |    0.89537   0.67152   0.31656    |
 |   119    0.80000   0.60000   0.60000   |    0.89537   0.67152   0.47484    |
 |   120    0.80000   0.60000   0.80000   |    0.89537   0.67152   0.63312    |
 |   121    0.80000   0.80000   0.00000   |    0.89537   0.89537   0.00000    |
 |   122    0.80000   0.80000   0.20000   |    0.89537   0.89537   0.15828    |
 |   123    0.80000   0.80000   0.40000   |    0.89537   0.89537   0.31656    |
 |   124    0.80000   0.80000   0.60000   |    0.89537   0.89537   0.47484    |
 |   125    0.80000   0.80000   0.80000   |    0.89537   0.89537   0.63312    |
 *----------------------------------------------------------------------------*
  
  
 *---------------------------------- MAIN ------------------------------------*
 |  Number of Wannier Functions               :                56             |
 |  Number of Objective Wannier Functions     :                56             |
 |  Number of input Bloch states              :                56             |
 |  Output verbosity (1=low, 5=high)          :                 2             |
 |  Timing Level (1=low, 5=high)              :                 1             |
 |  Optimisation (0=memory, 3=speed)          :                 3             |
 |  Length Unit                               :               Ang             |
 |  Post-processing setup (write *.nnkp)      :                 F             |
 |  Using Gamma-only branch of algorithms     :                 F             |
 *----------------------------------------------------------------------------*
 *------------------------------- WANNIERISE ---------------------------------*
 |  Total number of iterations                :             10000             |
 |  Number of CG steps before reset           :                 5             |
 |  Trial step length for line search         :             2.000             |
 |  Convergence tolerence                     :         0.100E-11             |
 |  Convergence window                        :                 5             |
 |  Iterations between writing output         :               200             |
 |  Iterations between backing up to disk     :               100             |
 |  Write r^2_nm to file                      :                 F             |
 |  Write xyz WF centres to file              :                 F             |
 |  Write on-site energies <0n|H|0n> to file  :                 F             |
 |  Use guiding centre to control phases      :                 F             |
 |  Use phases for initial projections        :                 F             |
 *----------------------------------------------------------------------------*
 *-------------------------------- PLOTTING ----------------------------------*
 |  Plotting interpolated bandstructure       :                 T             |
 |   Number of K-path sections                :                 7             |
 |   Divisions along first K-path section     :               100             |
 |   Output format                            :           gnuplot             |
 |   Output mode                              :               s-k             |
 *----------------------------------------------------------------------------*
 |   K-space path sections:                                                   |
 |    From: G       0.000  0.000  0.000     To: X       0.000  0.500  0.000   |
 |    From: X       0.000  0.500  0.000     To: M       0.500  0.500  0.000   |
 |    From: M       0.500  0.500  0.000     To: G       0.000  0.000  0.000   |
 |    From: G       0.000  0.000  0.000     To: Z       0.000  0.000  0.500   |
 |    From: Z       0.000  0.000  0.500     To: R       0.000  0.500  0.500   |
 |    From: R       0.000  0.500  0.500     To: A       0.500  0.500  0.500   |
 |    From: A       0.500  0.500  0.500     To: Z       0.000  0.000  0.500   |
 *----------------------------------------------------------------------------*
 |  Plotting Hamiltonian in WF basis          :                 T             |
 *----------------------------------------------------------------------------*

 *---------------------------------- K-MESH ----------------------------------*
 +----------------------------------------------------------------------------+
 |                    Distance to Nearest-Neighbour Shells                    |
 |                    ------------------------------------                    |
 |          Shell             Distance (Ang^-1)          Multiplicity         |
 |          -----             -----------------          ------------         |
 |             1                   0.158280                      2            |
 |             2                   0.223841                      4            |
 |             3                   0.274149                      8            |
 |             4                   0.316560                      6            |
 |             5                   0.353924                      8            |
 |             6                   0.387705                      8            |
 |             7                   0.447683                     12            |
 |             8                   0.474839                     10            |
 |             9                   0.500525                      8            |
 |            10                   0.524955                     24            |
 |            11                   0.548297                      8            |
 |            12                   0.570686                      8            |
 |            13                   0.592229                     16            |
 |            14                   0.633119                      6            |
 |            15                   0.652604                     16            |
 |            16                   0.671524                     12            |
 |            17                   0.689926                     24            |
 |            18                   0.707849                     24            |
 |            19                   0.725329                     16            |
 |            20                   0.742398                      8            |
 |            21                   0.775409                     24            |
 |            22                   0.791399                     10            |
 |            23                   0.807072                     24            |
 |            24                   0.822446                     32            |
 |            25                   0.852363                     24            |
 |            26                   0.866934                     16            |
 |            27                   0.895366                     12            |
 |            28                   0.909248                     16            |
 |            29                   0.922922                     16            |
 |            30                   0.936396                     48            |
 |            31                   0.949679                     30            |
 |            32                   0.962779                      8            |
 |            33                   0.975702                     24            |
 |            34                   1.001049                     24            |
 |            35                   1.013485                     32            |
 |            36                   1.025770                     16            |
 +----------------------------------------------------------------------------+
 | The b-vectors are chosen automatically                                     |
 | Shell:  1 w_b   19.9580947      (Ang^2)                                    |
 | Shell:  1 w_b   19.9580947      (Ang^2)                                    |
 | Shell:  2 w_b    9.9790432      (Ang^2)                                    |
 | The following shells are used:   1,  2                 |
 +----------------------------------------------------------------------------+
 |                        Shell   # Nearest-Neighbours                        |
 |                        -----   --------------------                        |
 |                          1               2                                 |
 |                          2               4                                 |
 +----------------------------------------------------------------------------+
 | Completeness relation is fully satisfied [Eq. (B1), PRB 56, 12847 (1997)]  |
 +----------------------------------------------------------------------------+
 |                  b_k Vectors (Ang^-1) and Weights (Ang^2)                  |
 |                  ----------------------------------------                  |
 |            No.         b_k(x)      b_k(y)      b_k(z)        w_b           |
 |            ---        --------------------------------     --------        |
 |             1         0.000000    0.000000    0.158280    19.958095        |
 |             2         0.000000    0.000000   -0.158280    19.958095        |
 |             3         0.000000    0.223841    0.000000     9.979043        |
 |             4         0.223841    0.000000    0.000000     9.979043        |
 |             5         0.000000   -0.223841    0.000000     9.979043        |
 |             6        -0.223841    0.000000    0.000000     9.979043        |
 +----------------------------------------------------------------------------+
 |                           b_k Directions (Ang^-1)                          |
 |                           -----------------------                          |
 |            No.           x           y           z                         |
 |            ---        --------------------------------                     |
 |             1         0.000000    0.000000    0.158280                     |
 |             2         0.000000    0.223841    0.000000                     |
 |             3         0.223841    0.000000    0.000000                     |
 +----------------------------------------------------------------------------+
  
 Starting a new Wannier90 calculation ...


 Reading overlaps from smo.mmn    :  Created on 29Nov2025 at 20:40:39

 Reading projections from smo.amn :  Created on 29Nov2025 at 20:40:21

 *------------------------------- WANNIERISE ---------------------------------*
 +--------------------------------------------------------------------+<-- CONV
 | Iter  Delta Spread     RMS Gradient      Spread (Ang^2)      Time  |<-- CONV
 +--------------------------------------------------------------------+<-- CONV

 ------------------------------------------------------------------------------
 Initial State
  WF centre and spread    1  (  0.000010,  0.000102,  0.000156 )     1.58932045
  WF centre and spread    2  (  0.000056,  0.000038,  0.000059 )     1.59064580
  WF centre and spread    3  (  0.000006, -0.000067,  0.000037 )     1.47073356
  WF centre and spread    4  (  0.000120, -0.000023,  3.969949 )     1.59561114
  WF centre and spread    5  (  0.000009,  0.000089,  3.969715 )     1.59756057
  WF centre and spread    6  ( -0.000007,  0.000053,  3.969659 )     1.47678636
  WF centre and spread    7  (  2.806977,  2.806867,  3.969766 )     1.59119698
  WF centre and spread    8  (  2.806926,  2.807079,  3.969758 )     1.59059654
  WF centre and spread    9  (  2.807011,  2.807049,  3.969637 )     1.47706617
  WF centre and spread   10  (  2.806909,  2.806972,  0.000055 )     1.59033382
  WF centre and spread   11  (  2.806882,  2.807075, -0.000078 )     1.59180458
  WF centre and spread   12  (  2.806951,  2.806920, -0.000002 )     1.47190315
  WF centre and spread   13  (  0.022729, -0.003434,  0.051956 )    40.72960402
  WF centre and spread   14  (  0.025370,  0.119416,  0.001723 )    38.24249670
  WF centre and spread   15  (  0.016374,  0.000479,  4.090755 )    42.19423948
  WF centre and spread   16  (  0.043467,  0.028937,  4.117322 )    39.01212422
  WF centre and spread   17  (  2.787453,  2.796744,  3.925023 )    42.46841669
  WF centre and spread   18  (  2.839919,  2.883204,  4.156119 )    39.01229856
  WF centre and spread   19  (  2.762842,  2.825973, -0.077716 )    40.98693663
  WF centre and spread   20  (  2.765371,  2.857966,  0.024041 )    38.28147977
  WF centre and spread   21  (  1.403508,  4.210481, -0.042139 )     1.19632552
  WF centre and spread   22  (  1.401792,  4.214038, -0.046236 )     7.04525448
  WF centre and spread   23  (  1.400797,  4.214083, -0.037880 )     7.07651067
  WF centre and spread   24  (  1.403468,  1.403533,  0.042124 )     1.19406935
  WF centre and spread   25  (  1.401443,  1.408130,  0.048322 )     7.04331292
  WF centre and spread   26  (  1.402665,  1.405584,  0.040156 )     7.05457674
  WF centre and spread   27  (  4.210446,  1.403469,  3.927266 )     1.19208264
  WF centre and spread   28  (  4.212868,  1.413741,  3.941753 )     7.27345284
  WF centre and spread   29  (  4.210119,  1.412971,  3.950590 )     7.29308198
  WF centre and spread   30  (  4.210470,  4.210468,  4.012167 )     1.18967693
  WF centre and spread   31  (  4.218327,  4.208644,  4.027455 )     7.22433407
  WF centre and spread   32  (  4.218275,  4.210534,  4.020689 )     7.23189688
  WF centre and spread   33  (  4.210506,  1.403522,  0.042114 )     1.19633470
  WF centre and spread   34  (  4.207474,  1.410681,  0.041569 )     7.06609386
  WF centre and spread   35  (  4.206683,  1.412144,  0.034438 )     7.07200688
  WF centre and spread   36  (  4.210467,  4.210494, -0.042172 )     1.19410545
  WF centre and spread   37  (  4.207928,  4.215899, -0.040057 )     7.02921837
  WF centre and spread   38  (  4.208946,  4.215161, -0.031873 )     7.04667402
  WF centre and spread   39  (  1.403482,  4.210477,  4.012094 )     1.19203341
  WF centre and spread   40  (  1.407511,  4.220671,  4.016007 )     7.16204087
  WF centre and spread   41  (  1.406666,  4.222706,  4.009024 )     7.18267306
  WF centre and spread   42  (  1.403507,  1.403454,  3.927220 )     1.19010625
  WF centre and spread   43  (  1.405124,  1.399582,  3.950251 )     7.16866779
  WF centre and spread   44  (  1.407651,  1.398627,  3.957032 )     7.14304333
  WF centre and spread   45  (  0.008384, -0.071671,  2.014303 )    13.19636128
  WF centre and spread   46  ( -0.000015, -0.049769,  1.984850 )     1.13503630
  WF centre and spread   47  ( -0.000017, -0.062056,  1.984920 )     1.13857388
  WF centre and spread   48  (  0.003799,  0.067311,  5.960925 )    13.13508870
  WF centre and spread   49  ( -0.000026,  0.049656,  5.954530 )     1.13478358
  WF centre and spread   50  ( -0.000019,  0.062395,  5.954559 )     1.13721307
  WF centre and spread   51  (  2.795015,  2.729222,  5.935680 )    13.08931669
  WF centre and spread   52  (  2.807091,  2.757276,  5.954519 )     1.13466592
  WF centre and spread   53  (  2.807034,  2.744722,  5.954531 )     1.13901911
  WF centre and spread   54  (  2.803769,  2.887050,  1.996318 )    13.06951491
  WF centre and spread   55  (  2.807053,  2.856724,  1.984834 )     1.13508388
  WF centre and spread   56  (  2.806963,  2.869208,  1.984859 )     1.13839826
  Sum of centres and spreads (112.324527,112.630601,135.532675 )   524.80178380

      0     0.525E+03     0.0000000000      524.8017838010       0.00  <-- CONV
        O_D=     10.1918567 O_OD=    352.2256314 O_TOT=    524.8017838 <-- SPRD
 ------------------------------------------------------------------------------
 Cycle:      1
  WF centre and spread    1  (  0.000076,  0.000098,  0.000145 )     1.53082329
  WF centre and spread    2  (  0.000055,  0.000054,  0.000058 )     1.53148905
  WF centre and spread    3  (  0.000029, -0.000041, -0.000015 )     1.43111752
  WF centre and spread    4  (  0.000148, -0.000054,  3.970005 )     1.53748063
  WF centre and spread    5  (  0.000040,  0.000083,  3.969764 )     1.53941673
  WF centre and spread    6  ( -0.000053,  0.000092,  3.969611 )     1.43915832
  WF centre and spread    7  (  2.806994,  2.806883,  3.969822 )     1.53166514
  WF centre and spread    8  (  2.806919,  2.807088,  3.969792 )     1.53064759
  WF centre and spread    9  (  2.807027,  2.807042,  3.969692 )     1.43926560
  WF centre and spread   10  (  2.806869,  2.807061,  0.000179 )     1.53175103
  WF centre and spread   11  (  2.806869,  2.807091, -0.000018 )     1.53384487
  WF centre and spread   12  (  2.806967,  2.806919,  0.000052 )     1.43161773
  WF centre and spread   13  (  0.052247, -0.007896,  0.135685 )    39.30012332
  WF centre and spread   14  (  0.019179,  0.119008,  0.003005 )    37.32802770
  WF centre and spread   15  (  0.014026, -0.008466,  4.143744 )    41.46607884
  WF centre and spread   16  (  0.118990,  0.034706,  4.149690 )    37.93084930
  WF centre and spread   17  (  2.792277,  2.801760,  3.935016 )    40.67143976
  WF centre and spread   18  (  2.857898,  2.909157,  4.195897 )    38.01310091
  WF centre and spread   19  (  2.753456,  2.831382,  0.000930 )    38.32649984
  WF centre and spread   20  (  2.757617,  2.877163,  0.015505 )    37.48952088
  WF centre and spread   21  (  1.403487,  4.210493, -0.042586 )     1.14867732
  WF centre and spread   22  (  1.400730,  4.214454, -0.047280 )     6.01408640
  WF centre and spread   23  (  1.399383,  4.214807, -0.038156 )     6.05327351
  WF centre and spread   24  (  1.403509,  1.403558,  0.042512 )     1.14992984
  WF centre and spread   25  (  1.400528,  1.409312,  0.049574 )     6.00428894
  WF centre and spread   26  (  1.402549,  1.406303,  0.041044 )     6.03384497
  WF centre and spread   27  (  4.210458,  1.403459,  3.926990 )     1.14799596
  WF centre and spread   28  (  4.211043,  1.415025,  3.941479 )     6.33937613
  WF centre and spread   29  (  4.207924,  1.413376,  3.950342 )     6.36949455
  WF centre and spread   30  (  4.210451,  4.210428,  4.012614 )     1.14659430
  WF centre and spread   31  (  4.218806,  4.207805,  4.030547 )     6.25767483
  WF centre and spread   32  (  4.217975,  4.209763,  4.024345 )     6.28213404
  WF centre and spread   33  (  4.210524,  1.403504,  0.042508 )     1.14856656
  WF centre and spread   34  (  4.208418,  1.410849,  0.040394 )     6.04556676
  WF centre and spread   35  (  4.207589,  1.411721,  0.032849 )     6.05030708
  WF centre and spread   36  (  4.210435,  4.210464, -0.042578 )     1.14999376
  WF centre and spread   37  (  4.208766,  4.217713, -0.039868 )     6.02189333
  WF centre and spread   38  (  4.209791,  4.216655, -0.031656 )     6.04062877
  WF centre and spread   39  (  1.403445,  4.210489,  4.012664 )     1.14723951
  WF centre and spread   40  (  1.411173,  4.219980,  4.019109 )     6.18820549
  WF centre and spread   41  (  1.410457,  4.222757,  4.012440 )     6.24921055
  WF centre and spread   42  (  1.403538,  1.403480,  3.926824 )     1.14793032
  WF centre and spread   43  (  1.407126,  1.399305,  3.952237 )     6.24980496
  WF centre and spread   44  (  1.411132,  1.397523,  3.958784 )     6.23847257
  WF centre and spread   45  (  0.011430, -0.068113,  2.017230 )    11.56584370
  WF centre and spread   46  ( -0.000053, -0.050110,  1.984828 )     1.10589662
  WF centre and spread   47  ( -0.000015, -0.062494,  1.984912 )     1.10859718
  WF centre and spread   48  (  0.001569,  0.067161,  5.971808 )    11.43296056
  WF centre and spread   49  ( -0.000055,  0.050024,  5.954543 )     1.10522848
  WF centre and spread   50  (  0.000009,  0.062930,  5.954580 )     1.10632968
  WF centre and spread   51  (  2.795943,  2.729842,  5.942030 )    11.43025143
  WF centre and spread   52  (  2.807118,  2.756896,  5.954534 )     1.10599074
  WF centre and spread   53  (  2.807009,  2.744335,  5.954533 )     1.10930206
  WF centre and spread   54  (  2.804623,  2.892496,  1.999283 )    11.41075280
  WF centre and spread   55  (  2.807074,  2.857068,  1.984784 )     1.10609345
  WF centre and spread   56  (  2.806901,  2.869604,  1.984826 )     1.10953197
  Sum of centres and spreads (112.438417,112.691992,135.861582 )   490.85588716

      1    -0.339E+02    13.2092066144      490.8558871601       0.10  <-- CONV
        O_D=      7.2409522 O_OD=    321.2306393 O_TOT=    490.8558872 <-- SPRD
 Delta: O_D= -0.2950904E+01 O_OD= -0.3099499E+02 O_TOT= -0.3394590E+02 <-- DLTA
 ------------------------------------------------------------------------------
 Cycle:    200
  WF centre and spread    1  (  0.000087,  0.000085, -0.000237 )     1.36339608
  WF centre and spread    2  (  0.000061, -0.000169,  0.000433 )     1.36231042
  WF centre and spread    3  ( -0.000397,  0.000253,  0.000014 )     1.34196210
  WF centre and spread    4  ( -0.000007,  0.000016,  3.969468 )     1.36151240
  WF centre and spread    5  (  0.000125, -0.000231,  3.968835 )     1.36115492
  WF centre and spread    6  ( -0.000185,  0.000132,  3.969726 )     1.34395433
  WF centre and spread    7  (  2.806945,  2.806957,  3.970003 )     1.36122433
  WF centre and spread    8  (  2.807130,  2.806869,  3.969721 )     1.36183607
  WF centre and spread    9  (  2.807204,  2.807531,  3.969740 )     1.34594761
  WF centre and spread   10  (  2.806941,  2.806881,  0.000212 )     1.36217359
  WF centre and spread   11  (  2.807033,  2.806899,  0.000387 )     1.36346503
  WF centre and spread   12  (  2.806983,  2.807507, -0.000053 )     1.34181383
  WF centre and spread   13  ( -0.179906,  0.320689,  0.486419 )    28.74240967
  WF centre and spread   14  (  0.225643, -0.417527,  0.050333 )    23.22915439
  WF centre and spread   15  ( -0.272852,  0.267616,  4.885507 )    28.78951941
  WF centre and spread   16  (  0.071273, -0.111641,  3.902903 )    27.63020936
  WF centre and spread   17  (  3.003033,  3.052738,  3.754435 )    25.69101478
  WF centre and spread   18  (  2.048119,  2.533807,  4.097681 )    33.88664795
  WF centre and spread   19  (  3.137949,  3.150905,  0.309789 )    25.39271022
  WF centre and spread   20  (  2.748865,  2.590388,  0.097886 )    33.21245308
  WF centre and spread   21  (  1.403885,  4.210459, -0.045901 )     1.07751773
  WF centre and spread   22  (  1.405994,  4.208235, -0.035832 )     1.30468655
  WF centre and spread   23  (  1.403501,  4.207799, -0.035695 )     1.32352009
  WF centre and spread   24  (  1.403209,  1.403713,  0.047769 )     1.08808165
  WF centre and spread   25  (  1.405774,  1.407118,  0.036275 )     1.29950542
  WF centre and spread   26  (  1.407016,  1.404472,  0.036274 )     1.32839434
  WF centre and spread   27  (  4.210347,  1.403533,  3.922246 )     1.08990324
  WF centre and spread   28  (  4.205949,  1.408435,  3.933952 )     1.32994735
  WF centre and spread   29  (  4.201797,  1.407850,  3.933827 )     1.32366003
  WF centre and spread   30  (  4.210329,  4.210672,  4.020780 )     1.08713629
  WF centre and spread   31  (  4.213529,  4.211754,  4.006247 )     1.32555436
  WF centre and spread   32  (  4.209652,  4.212855,  4.006133 )     1.32428216
  WF centre and spread   33  (  4.210575,  1.403284,  0.045154 )     1.08908839
  WF centre and spread   34  (  4.210685,  1.402021,  0.035415 )     1.32473831
  WF centre and spread   35  (  4.211141,  1.404097,  0.034779 )     1.34113154
  WF centre and spread   36  (  4.210394,  4.210724, -0.041593 )     1.08232377
  WF centre and spread   37  (  4.204697,  4.212069, -0.034854 )     1.30718131
  WF centre and spread   38  (  4.211767,  4.203854, -0.034101 )     1.32147820
  WF centre and spread   39  (  1.403351,  4.210842,  4.010739 )     1.08515454
  WF centre and spread   40  (  1.409132,  4.204164,  4.005110 )     1.33717940
  WF centre and spread   41  (  1.408158,  4.203198,  4.005034 )     1.31228174
  WF centre and spread   42  (  1.403425,  1.403470,  3.932813 )     1.08239400
  WF centre and spread   43  (  1.399368,  1.404746,  3.935243 )     1.32124153
  WF centre and spread   44  (  1.409368,  1.401320,  3.934621 )     1.31603612
  WF centre and spread   45  ( -0.001235, -0.041771,  1.989147 )     1.87731717
  WF centre and spread   46  ( -0.004207, -0.052195,  1.984822 )     1.04357019
  WF centre and spread   47  ( -0.000720, -0.064816,  1.985055 )     1.04526101
  WF centre and spread   48  ( -0.005109,  0.049057,  5.970609 )     1.82871945
  WF centre and spread   49  ( -0.002401,  0.051974,  5.954515 )     1.03864380
  WF centre and spread   50  (  0.000419,  0.067120,  5.954780 )     1.05194093
  WF centre and spread   51  (  2.810092,  2.764952,  5.956122 )     1.84778814
  WF centre and spread   52  (  2.806036,  2.755478,  5.954765 )     1.05106966
  WF centre and spread   53  (  2.808163,  2.742465,  5.954508 )     1.04770497
  WF centre and spread   54  (  2.812229,  2.858356,  1.990224 )     1.84038963
  WF centre and spread   55  (  2.805304,  2.858367,  1.984922 )     1.04388376
  WF centre and spread   56  (  2.805911,  2.868348,  1.984846 )     1.05296164
  Sum of centres and spreads (111.831573,112.447726,136.721955 )   288.43653797

    200     0.343E-01     7.9321458533      288.4365379671      18.17  <-- CONV
        O_D=      4.3143518 O_OD=    121.7378905 O_TOT=    288.4365380 <-- SPRD
 Delta: O_D=  0.4337247E-01 O_OD= -0.9116359E-02 O_TOT=  0.3425611E-01 <-- DLTA
 ------------------------------------------------------------------------------
 Cycle:    400
  WF centre and spread    1  (  0.000086,  0.000073, -0.000283 )     1.36282162
  WF centre and spread    2  (  0.000034, -0.000138,  0.000473 )     1.36176098
  WF centre and spread    3  ( -0.000490,  0.000300,  0.000014 )     1.34306884
  WF centre and spread    4  ( -0.000043, -0.000017,  3.969479 )     1.36138567
  WF centre and spread    5  (  0.000119, -0.000210,  3.968872 )     1.36078335
  WF centre and spread    6  ( -0.000280,  0.000130,  3.969732 )     1.34506796
  WF centre and spread    7  (  2.806947,  2.806964,  3.970002 )     1.36117460
  WF centre and spread    8  (  2.807121,  2.806874,  3.969741 )     1.36169682
  WF centre and spread    9  (  2.807192,  2.807583,  3.969734 )     1.34686484
  WF centre and spread   10  (  2.806940,  2.806884,  0.000195 )     1.36140945
  WF centre and spread   11  (  2.807016,  2.806895,  0.000265 )     1.36279761
  WF centre and spread   12  (  2.806961,  2.807593, -0.000053 )     1.34281021
  WF centre and spread   13  ( -0.193603,  0.339615,  0.427813 )    29.01427837
  WF centre and spread   14  (  0.231753, -0.407201,  0.060719 )    21.35602338
  WF centre and spread   15  ( -0.249903,  0.280070,  4.851260 )    28.85101270
  WF centre and spread   16  (  0.103496, -0.114349,  3.909224 )    25.97176188
  WF centre and spread   17  (  3.006050,  3.100089,  3.739473 )    25.43710841
  WF centre and spread   18  (  2.034335,  2.459458,  4.052975 )    33.05608686
  WF centre and spread   19  (  3.186335,  3.123406,  0.289780 )    25.16104728
  WF centre and spread   20  (  2.719079,  2.529106,  0.148777 )    33.15796587
  WF centre and spread   21  (  1.403888,  4.210508, -0.046356 )     1.07625742
  WF centre and spread   22  (  1.406496,  4.207270, -0.035676 )     1.28876219
  WF centre and spread   23  (  1.404305,  4.206984, -0.035571 )     1.30672656
  WF centre and spread   24  (  1.403215,  1.403738,  0.047652 )     1.08777118
  WF centre and spread   25  (  1.406438,  1.407785,  0.036074 )     1.28151285
  WF centre and spread   26  (  1.407884,  1.405200,  0.036155 )     1.30738330
  WF centre and spread   27  (  4.210353,  1.403503,  3.922135 )     1.08798653
  WF centre and spread   28  (  4.205581,  1.408506,  3.934091 )     1.31135197
  WF centre and spread   29  (  4.201921,  1.408386,  3.933946 )     1.30271335
  WF centre and spread   30  (  4.210309,  4.210667,  4.020527 )     1.08507684
  WF centre and spread   31  (  4.213498,  4.211858,  4.005929 )     1.30383416
  WF centre and spread   32  (  4.209594,  4.212281,  4.005858 )     1.30031605
  WF centre and spread   33  (  4.210568,  1.403266,  0.044142 )     1.08701236
  WF centre and spread   34  (  4.210618,  1.402172,  0.035364 )     1.31030254
  WF centre and spread   35  (  4.210654,  1.404151,  0.034803 )     1.32536894
  WF centre and spread   36  (  4.210402,  4.210681, -0.041387 )     1.08117780
  WF centre and spread   37  (  4.204017,  4.211588, -0.034891 )     1.29102173
  WF centre and spread   38  (  4.211003,  4.203154, -0.034203 )     1.30459651
  WF centre and spread   39  (  1.403309,  4.210808,  4.010073 )     1.08278419
  WF centre and spread   40  (  1.409796,  4.203807,  4.004928 )     1.31665858
  WF centre and spread   41  (  1.408682,  4.202554,  4.004930 )     1.29102538
  WF centre and spread   42  (  1.403395,  1.403472,  3.932965 )     1.08027250
  WF centre and spread   43  (  1.399929,  1.405101,  3.935173 )     1.29793809
  WF centre and spread   44  (  1.409838,  1.401930,  3.934572 )     1.29262042
  WF centre and spread   45  ( -0.000767, -0.042074,  1.986465 )     1.80806403
  WF centre and spread   46  ( -0.004196, -0.052200,  1.984863 )     1.04298418
  WF centre and spread   47  ( -0.000656, -0.064555,  1.985031 )     1.04432468
  WF centre and spread   48  ( -0.004039,  0.048222,  5.970490 )     1.75816847
  WF centre and spread   49  ( -0.002522,  0.051817,  5.954438 )     1.03743177
  WF centre and spread   50  (  0.000508,  0.066815,  5.954709 )     1.05057404
  WF centre and spread   51  (  2.809922,  2.764938,  5.958085 )     1.77817263
  WF centre and spread   52  (  2.806048,  2.755662,  5.954709 )     1.04943428
  WF centre and spread   53  (  2.808258,  2.742666,  5.954464 )     1.04723092
  WF centre and spread   54  (  2.811389,  2.857280,  1.988885 )     1.75673146
  WF centre and spread   55  (  2.805177,  2.858091,  1.984907 )     1.04244200
  WF centre and spread   56  (  2.806044,  2.867978,  1.984831 )     1.05267252
  Sum of centres and spreads (111.890005,112.367134,136.611302 )   283.24562916

    400     0.234E-02     7.4247833153      283.2456291562      36.51  <-- CONV
        O_D=      4.0633636 O_OD=    116.7979699 O_TOT=    283.2456292 <-- SPRD
 Delta: O_D=  0.1078467E-01 O_OD= -0.8449139E-02 O_TOT=  0.2335529E-02 <-- DLTA
 ------------------------------------------------------------------------------
 Cycle:    600
  WF centre and spread    1  (  0.000098,  0.000073, -0.000293 )     1.36289415
  WF centre and spread    2  (  0.000024, -0.000120,  0.000501 )     1.36168043
  WF centre and spread    3  ( -0.000560,  0.000317,  0.000015 )     1.34401248
  WF centre and spread    4  ( -0.000059, -0.000035,  3.969496 )     1.36173247
  WF centre and spread    5  (  0.000126, -0.000207,  3.968917 )     1.36090502
  WF centre and spread    6  ( -0.000349,  0.000124,  3.969736 )     1.34594645
  WF centre and spread    7  (  2.806961,  2.806984,  3.969981 )     1.36151266
  WF centre and spread    8  (  2.807134,  2.806857,  3.969770 )     1.36202692
  WF centre and spread    9  (  2.807184,  2.807626,  3.969731 )     1.34749085
  WF centre and spread   10  (  2.806957,  2.806913,  0.000200 )     1.36125405
  WF centre and spread   11  (  2.807023,  2.806880,  0.000178 )     1.36275959
  WF centre and spread   12  (  2.806968,  2.807648, -0.000050 )     1.34357689
  WF centre and spread   13  ( -0.212233,  0.340266,  0.371500 )    29.24228129
  WF centre and spread   14  (  0.241987, -0.399661,  0.064867 )    20.24280921
  WF centre and spread   15  ( -0.217604,  0.277062,  4.815247 )    28.96443825
  WF centre and spread   16  (  0.134657, -0.114268,  3.914492 )    24.79079011
  WF centre and spread   17  (  3.009670,  3.132076,  3.740732 )    25.28314930
  WF centre and spread   18  (  2.047097,  2.428272,  4.017619 )    32.28260714
  WF centre and spread   19  (  3.221511,  3.130314,  0.274778 )    25.00612690
  WF centre and spread   20  (  2.720310,  2.482149,  0.182327 )    33.20389967
  WF centre and spread   21  (  1.403888,  4.210536, -0.046575 )     1.07527113
  WF centre and spread   22  (  1.406983,  4.206424, -0.035572 )     1.28074611
  WF centre and spread   23  (  1.404897,  4.206293, -0.035502 )     1.29753286
  WF centre and spread   24  (  1.403218,  1.403727,  0.047539 )     1.08705573
  WF centre and spread   25  (  1.406998,  1.408283,  0.035968 )     1.27211952
  WF centre and spread   26  (  1.408634,  1.405746,  0.036090 )     1.29534861
  WF centre and spread   27  (  4.210361,  1.403487,  3.922123 )     1.08663910
  WF centre and spread   28  (  4.205074,  1.408679,  3.934157 )     1.30164349
  WF centre and spread   29  (  4.201758,  1.408993,  3.934018 )     1.29190275
  WF centre and spread   30  (  4.210290,  4.210654,  4.020226 )     1.08357206
  WF centre and spread   31  (  4.213398,  4.211945,  4.005724 )     1.29235336
  WF centre and spread   32  (  4.209421,  4.211849,  4.005686 )     1.28785366
  WF centre and spread   33  (  4.210575,  1.403264,  0.043478 )     1.08503694
  WF centre and spread   34  (  4.210511,  1.402367,  0.035327 )     1.30294016
  WF centre and spread   35  (  4.210230,  1.404275,  0.034814 )     1.31618242
  WF centre and spread   36  (  4.210394,  4.210630, -0.041231 )     1.08009810
  WF centre and spread   37  (  4.203554,  4.211208, -0.034889 )     1.28285516
  WF centre and spread   38  (  4.210421,  4.202656, -0.034220 )     1.29544926
  WF centre and spread   39  (  1.403272,  4.210769,  4.009589 )     1.08082046
  WF centre and spread   40  (  1.410466,  4.203383,  4.004831 )     1.30580514
  WF centre and spread   41  (  1.409162,  4.201990,  4.004868 )     1.27977595
  WF centre and spread   42  (  1.403377,  1.403468,  3.932938 )     1.07879406
  WF centre and spread   43  (  1.400270,  1.405313,  3.935117 )     1.28571579
  WF centre and spread   44  (  1.410312,  1.402352,  3.934509 )     1.28125809
  WF centre and spread   45  ( -0.000500, -0.042314,  1.984343 )     1.76187250
  WF centre and spread   46  ( -0.004113, -0.052193,  1.984897 )     1.04271915
  WF centre and spread   47  ( -0.000639, -0.064337,  1.985024 )     1.04371734
  WF centre and spread   48  ( -0.003263,  0.047560,  5.970658 )     1.71002840
  WF centre and spread   49  ( -0.002562,  0.051695,  5.954384 )     1.03709506
  WF centre and spread   50  (  0.000571,  0.066577,  5.954648 )     1.04976003
  WF centre and spread   51  (  2.809810,  2.764897,  5.959475 )     1.73178464
  WF centre and spread   52  (  2.806059,  2.755811,  5.954654 )     1.04844076
  WF centre and spread   53  (  2.808323,  2.742839,  5.954428 )     1.04707809
  WF centre and spread   54  (  2.810775,  2.856491,  1.987807 )     1.70032400
  WF centre and spread   55  (  2.805092,  2.857885,  1.984905 )     1.04185797
  WF centre and spread   56  (  2.806147,  2.867778,  1.984830 )     1.05245702
  Sum of centres and spreads (112.000067,112.330254,136.508809 )   279.88579869

    600    -0.353E-01     7.8638083970      279.8857986947      54.75  <-- CONV
        O_D=      3.9747505 O_OD=    113.5267525 O_TOT=    279.8857987 <-- SPRD
 Delta: O_D= -0.1750459E-01 O_OD= -0.1780156E-01 O_TOT= -0.3530615E-01 <-- DLTA
 ------------------------------------------------------------------------------
 Cycle:    800
  WF centre and spread    1  (  0.000111,  0.000069, -0.000275 )     1.36301419
  WF centre and spread    2  (  0.000014, -0.000096,  0.000512 )     1.36177649
  WF centre and spread    3  ( -0.000610,  0.000312,  0.000015 )     1.34486663
  WF centre and spread    4  ( -0.000070, -0.000049,  3.969522 )     1.36207762
  WF centre and spread    5  (  0.000123, -0.000195,  3.968962 )     1.36123396
  WF centre and spread    6  ( -0.000402,  0.000128,  3.969741 )     1.34663927
  WF centre and spread    7  (  2.806974,  2.807000,  3.969951 )     1.36192892
  WF centre and spread    8  (  2.807159,  2.806828,  3.969798 )     1.36247894
  WF centre and spread    9  (  2.807188,  2.807666,  3.969730 )     1.34797825
  WF centre and spread   10  (  2.806977,  2.806946,  0.000218 )     1.36130028
  WF centre and spread   11  (  2.807040,  2.806855,  0.000112 )     1.36286750
  WF centre and spread   12  (  2.806997,  2.807683, -0.000049 )     1.34418597
  WF centre and spread   13  ( -0.233467,  0.330005,  0.324306 )    29.45024881
  WF centre and spread   14  (  0.246938, -0.391585,  0.066940 )    19.37747038
  WF centre and spread   15  ( -0.180320,  0.277586,  4.789839 )    29.03037259
  WF centre and spread   16  (  0.157874, -0.136086,  3.919241 )    23.86317337
  WF centre and spread   17  (  3.018624,  3.159535,  3.741567 )    25.15673956
  WF centre and spread   18  (  2.064669,  2.371892,  3.995709 )    31.49742332
  WF centre and spread   19  (  3.245179,  3.131737,  0.261798 )    24.84173166
  WF centre and spread   20  (  2.704696,  2.445291,  0.213757 )    33.22656306
  WF centre and spread   21  (  1.403890,  4.210547, -0.046671 )     1.07432651
  WF centre and spread   22  (  1.407529,  4.205553, -0.035494 )     1.27512582
  WF centre and spread   23  (  1.405491,  4.205598, -0.035442 )     1.29099474
  WF centre and spread   24  (  1.403211,  1.403700,  0.047445 )     1.08609953
  WF centre and spread   25  (  1.407563,  1.408770,  0.035914 )     1.26562075
  WF centre and spread   26  (  1.409403,  1.406305,  0.036048 )     1.28674127
  WF centre and spread   27  (  4.210366,  1.403481,  3.922165 )     1.08527561
  WF centre and spread   28  (  4.204660,  1.408720,  3.934181 )     1.29307540
  WF centre and spread   29  (  4.201827,  1.409445,  3.934068 )     1.28199315
  WF centre and spread   30  (  4.210278,  4.210641,  4.019895 )     1.08206083
  WF centre and spread   31  (  4.213448,  4.212044,  4.005578 )     1.28340387
  WF centre and spread   32  (  4.209380,  4.211499,  4.005560 )     1.27733289
  WF centre and spread   33  (  4.210587,  1.403277,  0.042981 )     1.08291685
  WF centre and spread   34  (  4.210287,  1.402729,  0.035314 )     1.29709017
  WF centre and spread   35  (  4.209717,  1.404490,  0.034817 )     1.30866322
  WF centre and spread   36  (  4.210392,  4.210588, -0.041066 )     1.07891032
  WF centre and spread   37  (  4.203181,  4.210725, -0.034897 )     1.27704437
  WF centre and spread   38  (  4.209825,  4.202186, -0.034208 )     1.28859154
  WF centre and spread   39  (  1.403248,  4.210727,  4.009179 )     1.07900936
  WF centre and spread   40  (  1.410953,  4.202974,  4.004790 )     1.29712694
  WF centre and spread   41  (  1.409483,  4.201557,  4.004829 )     1.27053977
  WF centre and spread   42  (  1.403361,  1.403464,  3.932841 )     1.07738347
  WF centre and spread   43  (  1.400472,  1.405337,  3.935073 )     1.27598940
  WF centre and spread   44  (  1.410516,  1.402601,  3.934453 )     1.27145917
  WF centre and spread   45  ( -0.000301, -0.042463,  1.982596 )     1.72575403
  WF centre and spread   46  ( -0.003961, -0.052180,  1.984924 )     1.04243656
  WF centre and spread   47  ( -0.000650, -0.064147,  1.985031 )     1.04307157
  WF centre and spread   48  ( -0.002621,  0.047028,  5.970972 )     1.67118438
  WF centre and spread   49  ( -0.002540,  0.051578,  5.954353 )     1.03697239
  WF centre and spread   50  (  0.000614,  0.066336,  5.954600 )     1.04877985
  WF centre and spread   51  (  2.809695,  2.764840,  5.960636 )     1.69361801
  WF centre and spread   52  (  2.806091,  2.755952,  5.954601 )     1.04783452
  WF centre and spread   53  (  2.808386,  2.743020,  5.954391 )     1.04679382
  WF centre and spread   54  (  2.810220,  2.855837,  1.986769 )     1.65514191
  WF centre and spread   55  (  2.805022,  2.857714,  1.984908 )     1.04140425
  WF centre and spread   56  (  2.806252,  2.867658,  1.984846 )     1.05207406
  Sum of centres and spreads (112.080972,112.239650,136.437372 )   277.01591109

    800    -0.639E-01    10.2500862716      277.0159110880      72.77  <-- CONV
        O_D=      3.8487279 O_OD=    110.7828875 O_TOT=    277.0159111 <-- SPRD
 Delta: O_D=  0.1433921E-01 O_OD= -0.7826394E-01 O_TOT= -0.6392473E-01 <-- DLTA
 ------------------------------------------------------------------------------
 Cycle:   1000
  WF centre and spread    1  (  0.000122,  0.000063, -0.000223 )     1.36299768
  WF centre and spread    2  ( -0.000001, -0.000066,  0.000510 )     1.36184323
  WF centre and spread    3  ( -0.000658,  0.000303,  0.000017 )     1.34583288
  WF centre and spread    4  ( -0.000086, -0.000065,  3.969562 )     1.36227379
  WF centre and spread    5  (  0.000101, -0.000165,  3.969013 )     1.36153285
  WF centre and spread    6  ( -0.000443,  0.000121,  3.969743 )     1.34746355
  WF centre and spread    7  (  2.806982,  2.807007,  3.969915 )     1.36221943
  WF centre and spread    8  (  2.807178,  2.806802,  3.969814 )     1.36288630
  WF centre and spread    9  (  2.807207,  2.807704,  3.969728 )     1.34849064
  WF centre and spread   10  (  2.806993,  2.806981,  0.000257 )     1.36130686
  WF centre and spread   11  (  2.807055,  2.806831,  0.000041 )     1.36292776
  WF centre and spread   12  (  2.807042,  2.807731, -0.000045 )     1.34486821
  WF centre and spread   13  ( -0.262588,  0.345165,  0.270368 )    29.63573122
  WF centre and spread   14  (  0.249420, -0.378685,  0.066771 )    18.56955956
  WF centre and spread   15  ( -0.129564,  0.282349,  4.764174 )    29.10125701
  WF centre and spread   16  (  0.178860, -0.124945,  3.922892 )    22.98991263
  WF centre and spread   17  (  3.037361,  3.194194,  3.735180 )    25.05629416
  WF centre and spread   18  (  2.097115,  2.329932,  3.968751 )    30.62588754
  WF centre and spread   19  (  3.268642,  3.120626,  0.243438 )    24.62316677
  WF centre and spread   20  (  2.669978,  2.388092,  0.242801 )    33.28102684
  WF centre and spread   21  (  1.403896,  4.210556, -0.046688 )     1.07312292
  WF centre and spread   22  (  1.408238,  4.204507, -0.035425 )     1.27087598
  WF centre and spread   23  (  1.406241,  4.204767, -0.035404 )     1.28540835
  WF centre and spread   24  (  1.403186,  1.403666,  0.047339 )     1.08511564
  WF centre and spread   25  (  1.408193,  1.409304,  0.035879 )     1.26064522
  WF centre and spread   26  (  1.410266,  1.406933,  0.036000 )     1.27930383
  WF centre and spread   27  (  4.210366,  1.403484,  3.922243 )     1.08367217
  WF centre and spread   28  (  4.204053,  1.408793,  3.934151 )     1.28659557
  WF centre and spread   29  (  4.201792,  1.409985,  3.934102 )     1.27458397
  WF centre and spread   30  (  4.210272,  4.210626,  4.019464 )     1.08028388
  WF centre and spread   31  (  4.213555,  4.212271,  4.005458 )     1.27848224
  WF centre and spread   32  (  4.209339,  4.211274,  4.005454 )     1.27070844
  WF centre and spread   33  (  4.210593,  1.403305,  0.042503 )     1.08057841
  WF centre and spread   34  (  4.209926,  1.403233,  0.035315 )     1.29235094
  WF centre and spread   35  (  4.209091,  1.404844,  0.034834 )     1.30172391
  WF centre and spread   36  (  4.210399,  4.210569, -0.040838 )     1.07737481
  WF centre and spread   37  (  4.202795,  4.210165, -0.034882 )     1.27241235
  WF centre and spread   38  (  4.209129,  4.201657, -0.034190 )     1.28260747
  WF centre and spread   39  (  1.403232,  4.210687,  4.008748 )     1.07701499
  WF centre and spread   40  (  1.411506,  4.202500,  4.004774 )     1.29078275
  WF centre and spread   41  (  1.409873,  4.201059,  4.004784 )     1.26304472
  WF centre and spread   42  (  1.403342,  1.403470,  3.932660 )     1.07564863
  WF centre and spread   43  (  1.400429,  1.405139,  3.935040 )     1.26812640
  WF centre and spread   44  (  1.410663,  1.402721,  3.934379 )     1.26349709
  WF centre and spread   45  ( -0.000113, -0.042531,  1.980809 )     1.69116586
  WF centre and spread   46  ( -0.003757, -0.052138,  1.984962 )     1.04182500
  WF centre and spread   47  ( -0.000694, -0.063929,  1.985052 )     1.04243973
  WF centre and spread   48  ( -0.001954,  0.046546,  5.971361 )     1.63399242
  WF centre and spread   49  ( -0.002452,  0.051450,  5.954322 )     1.03662832
  WF centre and spread   50  (  0.000637,  0.066048,  5.954553 )     1.04748022
  WF centre and spread   51  (  2.809581,  2.764815,  5.961731 )     1.65595084
  WF centre and spread   52  (  2.806123,  2.756097,  5.954540 )     1.04700301
  WF centre and spread   53  (  2.808444,  2.743271,  5.954335 )     1.04624030
  WF centre and spread   54  (  2.809699,  2.855225,  1.985625 )     1.61306854
  WF centre and spread   55  (  2.804985,  2.857566,  1.984914 )     1.04085590
  WF centre and spread   56  (  2.806367,  2.867637,  1.984884 )     1.05158871
  Sum of centres and spreads (112.167961,112.205545,136.335497 )   274.18967847

   1000    -0.492E-01     5.7411976401      274.1896784692      90.91  <-- CONV
        O_D=      3.6438992 O_OD=    108.1614836 O_TOT=    274.1896785 <-- SPRD
 Delta: O_D=  0.1844499E-01 O_OD= -0.6760851E-01 O_TOT= -0.4916352E-01 <-- DLTA
 ------------------------------------------------------------------------------
 Cycle:   1200
  WF centre and spread    1  (  0.000133,  0.000062, -0.000162 )     1.36284666
  WF centre and spread    2  (  0.000005, -0.000057,  0.000498 )     1.36180392
  WF centre and spread    3  ( -0.000687,  0.000294,  0.000019 )     1.34662500
  WF centre and spread    4  ( -0.000098, -0.000077,  3.969589 )     1.36223460
  WF centre and spread    5  (  0.000096, -0.000153,  3.969065 )     1.36175624
  WF centre and spread    6  ( -0.000462,  0.000109,  3.969744 )     1.34805457
  WF centre and spread    7  (  2.806988,  2.807013,  3.969886 )     1.36226705
  WF centre and spread    8  (  2.807199,  2.806771,  3.969830 )     1.36322196
  WF centre and spread    9  (  2.807230,  2.807731,  3.969726 )     1.34884874
  WF centre and spread   10  (  2.806999,  2.807000,  0.000288 )     1.36118538
  WF centre and spread   11  (  2.807064,  2.806814, -0.000014 )     1.36292088
  WF centre and spread   12  (  2.807080,  2.807770, -0.000043 )     1.34543950
  WF centre and spread   13  ( -0.289734,  0.339001,  0.235805 )    29.77208916
  WF centre and spread   14  (  0.269056, -0.369506,  0.063961 )    18.13994263
  WF centre and spread   15  ( -0.079092,  0.293504,  4.752881 )    29.13310859
  WF centre and spread   16  (  0.201705, -0.144814,  3.928106 )    22.32115830
  WF centre and spread   17  (  3.055803,  3.226600,  3.729513 )    25.00773112
  WF centre and spread   18  (  2.102329,  2.293242,  3.958495 )    30.03985902
  WF centre and spread   19  (  3.285767,  3.124729,  0.228986 )    24.43059051
  WF centre and spread   20  (  2.694439,  2.350486,  0.256824 )    33.32823536
  WF centre and spread   21  (  1.403899,  4.210565, -0.046616 )     1.07169993
  WF centre and spread   22  (  1.408830,  4.203702, -0.035377 )     1.26884409
  WF centre and spread   23  (  1.406878,  4.204089, -0.035380 )     1.28238792
  WF centre and spread   24  (  1.403169,  1.403630,  0.047204 )     1.08405579
  WF centre and spread   25  (  1.408767,  1.409734,  0.035854 )     1.25793244
  WF centre and spread   26  (  1.411023,  1.407469,  0.035962 )     1.27494968
  WF centre and spread   27  (  4.210355,  1.403491,  3.922366 )     1.08221469
  WF centre and spread   28  (  4.203589,  1.408974,  3.934140 )     1.28106963
  WF centre and spread   29  (  4.201766,  1.410469,  3.934131 )     1.26886633
  WF centre and spread   30  (  4.210271,  4.210610,  4.019104 )     1.07863394
  WF centre and spread   31  (  4.213513,  4.212284,  4.005371 )     1.27235895
  WF centre and spread   32  (  4.209216,  4.210965,  4.005373 )     1.26379882
  WF centre and spread   33  (  4.210601,  1.403329,  0.042197 )     1.07851383
  WF centre and spread   34  (  4.209531,  1.403681,  0.035313 )     1.28896095
  WF centre and spread   35  (  4.208518,  1.405174,  0.034840 )     1.29680020
  WF centre and spread   36  (  4.210404,  4.210560, -0.040701 )     1.07595432
  WF centre and spread   37  (  4.202549,  4.209633, -0.034887 )     1.26952041
  WF centre and spread   38  (  4.208566,  4.201233, -0.034202 )     1.27852862
  WF centre and spread   39  (  1.403222,  4.210662,  4.008449 )     1.07528266
  WF centre and spread   40  (  1.411955,  4.202047,  4.004759 )     1.28428174
  WF centre and spread   41  (  1.410274,  4.200680,  4.004753 )     1.25697834
  WF centre and spread   42  (  1.403333,  1.403481,  3.932473 )     1.07396519
  WF centre and spread   43  (  1.400611,  1.405190,  3.935010 )     1.26124155
  WF centre and spread   44  (  1.410801,  1.402896,  3.934358 )     1.25766350
  WF centre and spread   45  (  0.000022, -0.042563,  1.979357 )     1.66738957
  WF centre and spread   46  ( -0.003572, -0.052083,  1.985002 )     1.04126280
  WF centre and spread   47  ( -0.000732, -0.063727,  1.985056 )     1.04194055
  WF centre and spread   48  ( -0.001467,  0.046231,  5.971870 )     1.60804714
  WF centre and spread   49  ( -0.002340,  0.051359,  5.954299 )     1.03624059
  WF centre and spread   50  (  0.000661,  0.065845,  5.954522 )     1.04676032
  WF centre and spread   51  (  2.809464,  2.764797,  5.962469 )     1.62920310
  WF centre and spread   52  (  2.806208,  2.756198,  5.954487 )     1.04686603
  WF centre and spread   53  (  2.808504,  2.743427,  5.954296 )     1.04593535
  WF centre and spread   54  (  2.809327,  2.854796,  1.984722 )     1.58433290
  WF centre and spread   55  (  2.804974,  2.857463,  1.984920 )     1.04047501
  WF centre and spread   56  (  2.806436,  2.867594,  1.984931 )     1.05116164
  Sum of centres and spreads (112.300946,112.160403,136.273418 )   272.28403769

   1200    -0.158E-01     8.0408065227      272.2840376887     109.42  <-- CONV
        O_D=      3.5526824 O_OD=    106.3470597 O_TOT=    272.2840377 <-- SPRD
 Delta: O_D= -0.1173470E-01 O_OD= -0.4097827E-02 O_TOT= -0.1583253E-01 <-- DLTA
 ------------------------------------------------------------------------------
 Cycle:   1400
  WF centre and spread    1  (  0.000133,  0.000055, -0.000108 )     1.36295687
  WF centre and spread    2  (  0.000012, -0.000051,  0.000467 )     1.36195046
  WF centre and spread    3  ( -0.000704,  0.000293,  0.000024 )     1.34732386
  WF centre and spread    4  ( -0.000110, -0.000087,  3.969604 )     1.36240055
  WF centre and spread    5  (  0.000088, -0.000137,  3.969096 )     1.36196822
  WF centre and spread    6  ( -0.000472,  0.000097,  3.969741 )     1.34858257
  WF centre and spread    7  (  2.806995,  2.807017,  3.969857 )     1.36243305
  WF centre and spread    8  (  2.807203,  2.806759,  3.969828 )     1.36347728
  WF centre and spread    9  (  2.807243,  2.807746,  3.969721 )     1.34916012
  WF centre and spread   10  (  2.807008,  2.807027,  0.000306 )     1.36131074
  WF centre and spread   11  (  2.807071,  2.806802, -0.000066 )     1.36291809
  WF centre and spread   12  (  2.807118,  2.807805, -0.000037 )     1.34596227
  WF centre and spread   13  ( -0.316782,  0.328766,  0.202805 )    29.82685935
  WF centre and spread   14  (  0.255203, -0.354695,  0.060806 )    17.65168951
  WF centre and spread   15  ( -0.038757,  0.297239,  4.740984 )    29.18390607
  WF centre and spread   16  (  0.220670, -0.143368,  3.930493 )    21.83750210
  WF centre and spread   17  (  3.070681,  3.256565,  3.721290 )    25.00469725
  WF centre and spread   18  (  2.111090,  2.273801,  3.933337 )    29.52587833
  WF centre and spread   19  (  3.299388,  3.126172,  0.213561 )    24.29570224
  WF centre and spread   20  (  2.677583,  2.329780,  0.271231 )    33.35788973
  WF centre and spread   21  (  1.403898,  4.210572, -0.046540 )     1.07070646
  WF centre and spread   22  (  1.409451,  4.202936, -0.035348 )     1.26706606
  WF centre and spread   23  (  1.407485,  4.203451, -0.035364 )     1.28054605
  WF centre and spread   24  (  1.403153,  1.403613,  0.047093 )     1.08338238
  WF centre and spread   25  (  1.409300,  1.410137,  0.035820 )     1.25597169
  WF centre and spread   26  (  1.411675,  1.407903,  0.035919 )     1.27208576
  WF centre and spread   27  (  4.210347,  1.403494,  3.922482 )     1.08120674
  WF centre and spread   28  (  4.203183,  1.409084,  3.934105 )     1.27775627
  WF centre and spread   29  (  4.201709,  1.410819,  3.934140 )     1.26560717
  WF centre and spread   30  (  4.210269,  4.210592,  4.018750 )     1.07735550
  WF centre and spread   31  (  4.213507,  4.212370,  4.005318 )     1.27036082
  WF centre and spread   32  (  4.209170,  4.210749,  4.005326 )     1.26129980
  WF centre and spread   33  (  4.210605,  1.403347,  0.041949 )     1.07703497
  WF centre and spread   34  (  4.209100,  1.404129,  0.035327 )     1.28664900
  WF centre and spread   35  (  4.207986,  1.405552,  0.034870 )     1.29333340
  WF centre and spread   36  (  4.210401,  4.210549, -0.040575 )     1.07507855
  WF centre and spread   37  (  4.202397,  4.209156, -0.034881 )     1.26761956
  WF centre and spread   38  (  4.208060,  4.200923, -0.034220 )     1.27610892
  WF centre and spread   39  (  1.403214,  4.210645,  4.008219 )     1.07400090
  WF centre and spread   40  (  1.412328,  4.201656,  4.004748 )     1.28030668
  WF centre and spread   41  (  1.410597,  4.200350,  4.004720 )     1.25319569
  WF centre and spread   42  (  1.403332,  1.403489,  3.932263 )     1.07262672
  WF centre and spread   43  (  1.400608,  1.405070,  3.934981 )     1.25701988
  WF centre and spread   44  (  1.410835,  1.402931,  3.934332 )     1.25418939
  WF centre and spread   45  (  0.000077, -0.042556,  1.978123 )     1.64933407
  WF centre and spread   46  ( -0.003418, -0.052014,  1.985022 )     1.04104524
  WF centre and spread   47  ( -0.000773, -0.063531,  1.985068 )     1.04150785
  WF centre and spread   48  ( -0.001087,  0.045988,  5.972272 )     1.58842827
  WF centre and spread   49  ( -0.002252,  0.051291,  5.954278 )     1.03572617
  WF centre and spread   50  (  0.000661,  0.065685,  5.954495 )     1.04557706
  WF centre and spread   51  (  2.809358,  2.764775,  5.963061 )     1.60777774
  WF centre and spread   52  (  2.806233,  2.756301,  5.954447 )     1.04620595
  WF centre and spread   53  (  2.808551,  2.743607,  5.954256 )     1.04519805
  WF centre and spread   54  (  2.809029,  2.854450,  1.983904 )     1.56190586
  WF centre and spread   55  (  2.804965,  2.857404,  1.984911 )     1.04007156
  WF centre and spread   56  (  2.806500,  2.867613,  1.984967 )     1.05076450
  Sum of centres and spreads (112.341115,112.160116,136.191181 )   270.65861933

   1400    -0.136E-01     4.8423836973      270.6586193321     127.42  <-- CONV
        O_D=      3.4093029 O_OD=    104.8650208 O_TOT=    270.6586193 <-- SPRD
 Delta: O_D= -0.6098877E-02 O_OD= -0.7451987E-02 O_TOT= -0.1355086E-01 <-- DLTA
 ------------------------------------------------------------------------------
 Cycle:   1600
  WF centre and spread    1  (  0.000138,  0.000052, -0.000049 )     1.36284686
  WF centre and spread    2  (  0.000021, -0.000046,  0.000438 )     1.36184744
  WF centre and spread    3  ( -0.000717,  0.000284,  0.000024 )     1.34794667
  WF centre and spread    4  ( -0.000123, -0.000101,  3.969625 )     1.36238645
  WF centre and spread    5  (  0.000095, -0.000142,  3.969132 )     1.36204644
  WF centre and spread    6  ( -0.000472,  0.000090,  3.969744 )     1.34904463
  WF centre and spread    7  (  2.807003,  2.807021,  3.969843 )     1.36240066
  WF centre and spread    8  (  2.807224,  2.806724,  3.969836 )     1.36370069
  WF centre and spread    9  (  2.807259,  2.807765,  3.969721 )     1.34945730
  WF centre and spread   10  (  2.807022,  2.807056,  0.000327 )     1.36113326
  WF centre and spread   11  (  2.807083,  2.806784, -0.000097 )     1.36291175
  WF centre and spread   12  (  2.807150,  2.807835, -0.000035 )     1.34645681
  WF centre and spread   13  ( -0.346613,  0.314792,  0.187486 )    29.87560132
  WF centre and spread   14  (  0.273534, -0.361963,  0.055683 )    17.44465206
  WF centre and spread   15  (  0.004082,  0.292169,  4.735565 )    29.23974533
  WF centre and spread   16  (  0.239102, -0.156403,  3.933797 )    21.40043115
  WF centre and spread   17  (  3.087779,  3.286178,  3.715027 )    24.99803755
  WF centre and spread   18  (  2.146788,  2.240520,  3.919303 )    29.20115535
  WF centre and spread   19  (  3.315513,  3.104781,  0.212048 )    24.25892930
  WF centre and spread   20  (  2.708469,  2.244457,  0.261470 )    33.73137446
  WF centre and spread   21  (  1.403902,  4.210577, -0.046434 )     1.06975443
  WF centre and spread   22  (  1.410047,  4.202212, -0.035335 )     1.26663467
  WF centre and spread   23  (  1.408098,  4.202870, -0.035348 )     1.27935614
  WF centre and spread   24  (  1.403137,  1.403596,  0.046961 )     1.08257787
  WF centre and spread   25  (  1.409852,  1.410568,  0.035802 )     1.25439973
  WF centre and spread   26  (  1.412381,  1.408411,  0.035895 )     1.26938971
  WF centre and spread   27  (  4.210341,  1.403499,  3.922606 )     1.08023071
  WF centre and spread   28  (  4.202826,  1.409150,  3.934076 )     1.27452061
  WF centre and spread   29  (  4.201713,  1.411152,  3.934149 )     1.26229005
  WF centre and spread   30  (  4.210270,  4.210573,  4.018391 )     1.07619442
  WF centre and spread   31  (  4.213498,  4.212385,  4.005255 )     1.26767018
  WF centre and spread   32  (  4.209103,  4.210576,  4.005282 )     1.25751125
[...]
  WF centre and spread   13  ( -1.201522, -0.377155,  0.271311 )    27.87026111
  WF centre and spread   14  (  0.095123, -0.064330,  0.001140 )    12.11068369
  WF centre and spread   15  (  1.559726,  0.365367,  4.494168 )    27.17384676
  WF centre and spread   16  (  0.258072, -0.248351,  3.923722 )    16.81665560
  WF centre and spread   17  (  3.059165,  3.506127,  3.659898 )    24.59656858
  WF centre and spread   18  (  0.860880,  0.922071,  3.930931 )    17.19052551
  WF centre and spread   19  (  4.041015,  3.383182,  0.409861 )    24.47448354
  WF centre and spread   20  (  2.710804,  1.880618, -0.002705 )    37.04272301
  WF centre and spread   21  (  1.403602,  4.210505, -0.042883 )     1.06630093
  WF centre and spread   22  (  1.430339,  4.179988, -0.035410 )     1.30230534
  WF centre and spread   23  (  1.427305,  4.183440, -0.035304 )     1.30944383
  WF centre and spread   24  (  1.403196,  1.403497,  0.041638 )     1.07181554
  WF centre and spread   25  (  1.428717,  1.426560,  0.035544 )     1.29397573
  WF centre and spread   26  (  1.431936,  1.424950,  0.035497 )     1.29485981
  WF centre and spread   27  (  4.210542,  1.403474,  3.928431 )     1.05660182
  WF centre and spread   28  (  4.197077,  1.413929,  3.934131 )     1.24181978
  WF centre and spread   29  (  4.198521,  1.415456,  3.934012 )     1.23876614
  WF centre and spread   30  (  4.210409,  4.210511,  4.011075 )     1.05475195
  WF centre and spread   31  (  4.205288,  4.205122,  4.005135 )     1.24832684
  WF centre and spread   32  (  4.203479,  4.201440,  4.005231 )     1.25261662
  WF centre and spread   33  (  4.210536,  1.403555,  0.040831 )     1.06885551
  WF centre and spread   34  (  4.190094,  1.423821,  0.035710 )     1.29150574
  WF centre and spread   35  (  4.188047,  1.423125,  0.035447 )     1.28666882
  WF centre and spread   36  (  4.210402,  4.210365, -0.041833 )     1.06968129
  WF centre and spread   37  (  4.190480,  4.189460, -0.035446 )     1.28990907
  WF centre and spread   38  (  4.190671,  4.186937, -0.035328 )     1.28967373
  WF centre and spread   39  (  1.403484,  4.210424,  4.009257 )     1.05569606
  WF centre and spread   40  (  1.416723,  4.195061,  4.004912 )     1.21838291
  WF centre and spread   41  (  1.416845,  4.194975,  4.004968 )     1.22239173
  WF centre and spread   42  (  1.403568,  1.403589,  3.928429 )     1.05636355
  WF centre and spread   43  (  1.407161,  1.405520,  3.934409 )     1.19718073
  WF centre and spread   44  (  1.407844,  1.404843,  3.934227 )     1.19369147
  WF centre and spread   45  (  0.001181, -0.043691,  1.943629 )     1.49834108
  WF centre and spread   46  ( -0.000277, -0.049420,  1.985356 )     1.03409489
  WF centre and spread   47  ( -0.000673, -0.059749,  1.985319 )     1.03623382
  WF centre and spread   48  (  0.001197,  0.045325,  5.998145 )     1.47883388
  WF centre and spread   49  ( -0.001022,  0.050386,  5.954117 )     1.03238801
  WF centre and spread   50  ( -0.000103,  0.061681,  5.954015 )     1.03667228
  WF centre and spread   51  (  2.806669,  2.762896,  5.980816 )     1.44075909
  WF centre and spread   52  (  2.806906,  2.757630,  5.953828 )     1.04042881
  WF centre and spread   53  (  2.808521,  2.744809,  5.954218 )     1.03666642
  WF centre and spread   54  (  2.806422,  2.851888,  1.957482 )     1.41825625
  WF centre and spread   55  (  2.806857,  2.858431,  1.985537 )     1.03678167
  WF centre and spread   56  (  2.806853,  2.867970,  1.985152 )     1.03657880
  Sum of centres and spreads (112.453960,110.391225,135.776785 )   246.43732316

   9600     0.264E+00    42.2917881209      246.4373231603     872.41  <-- CONV
        O_D=      2.1072651 O_OD=     81.9457623 O_TOT=    246.4373232 <-- SPRD
 Delta: O_D=  0.1412267E+00 O_OD=  0.1227420E+00 O_TOT=  0.2639687E+00 <-- DLTA
 ------------------------------------------------------------------------------
 Cycle:   9800
  WF centre and spread    1  ( -0.000120, -0.000131,  0.000062 )     1.36693078
  WF centre and spread    2  ( -0.000056,  0.000126,  0.000145 )     1.36685979
  WF centre and spread    3  ( -0.000553,  0.000757,  0.000016 )     1.36032205
  WF centre and spread    4  ( -0.000106, -0.000128,  3.969314 )     1.36493882
  WF centre and spread    5  (  0.000131, -0.000125,  3.969733 )     1.36549968
  WF centre and spread    6  ( -0.000031,  0.000691,  3.969650 )     1.35774392
  WF centre and spread    7  (  2.806919,  2.806888,  3.969877 )     1.36669635
  WF centre and spread    8  (  2.806971,  2.806961,  3.969810 )     1.36611573
  WF centre and spread    9  (  2.807424,  2.807914,  3.969654 )     1.35518740
  WF centre and spread   10  (  2.807060,  2.807064,  0.000253 )     1.36500460
  WF centre and spread   11  (  2.806890,  2.806976, -0.000199 )     1.36616981
  WF centre and spread   12  (  2.807347,  2.808093,  0.000008 )     1.35618503
  WF centre and spread   13  ( -1.154722, -0.408277,  0.286707 )    27.63595951
  WF centre and spread   14  (  0.094210, -0.061667,  0.001300 )    12.08212890
  WF centre and spread   15  (  1.642094,  0.367164,  4.523329 )    26.80648540
  WF centre and spread   16  (  0.245214, -0.235463,  3.925946 )    16.74329769
  WF centre and spread   17  (  3.041379,  3.493260,  3.667317 )    24.48704571
  WF centre and spread   18  (  0.830420,  0.885089,  3.934808 )    17.08438372
  WF centre and spread   19  (  4.070762,  3.411207,  0.396851 )    24.35066579
  WF centre and spread   20  (  2.656330,  1.882634, -0.019688 )    36.88954673
  WF centre and spread   21  (  1.403596,  4.210512, -0.042835 )     1.06657911
  WF centre and spread   22  (  1.430670,  4.179796, -0.035431 )     1.30049389
  WF centre and spread   23  (  1.427751,  4.183255, -0.035325 )     1.30546018
  WF centre and spread   24  (  1.403217,  1.403503,  0.041645 )     1.07189722
  WF centre and spread   25  (  1.429081,  1.426878,  0.035581 )     1.29196806
  WF centre and spread   26  (  1.432207,  1.425139,  0.035520 )     1.29204807
  WF centre and spread   27  (  4.210542,  1.403472,  3.928437 )     1.05649404
  WF centre and spread   28  (  4.196872,  1.414231,  3.934116 )     1.23957928
  WF centre and spread   29  (  4.198344,  1.415773,  3.933995 )     1.23550347
  WF centre and spread   30  (  4.210415,  4.210520,  4.011059 )     1.05433308
  WF centre and spread   31  (  4.204951,  4.204736,  4.005158 )     1.24526257
  WF centre and spread   32  (  4.203154,  4.201052,  4.005245 )     1.25038509
  WF centre and spread   33  (  4.210530,  1.403552,  0.040882 )     1.06930919
  WF centre and spread   34  (  4.189852,  1.424107,  0.035737 )     1.29019026
  WF centre and spread   35  (  4.187724,  1.423410,  0.035490 )     1.28392043
  WF centre and spread   36  (  4.210404,  4.210365, -0.041754 )     1.06952668
  WF centre and spread   37  (  4.190361,  4.189167, -0.035448 )     1.28802130
  WF centre and spread   38  (  4.190553,  4.186869, -0.035341 )     1.28940074
  WF centre and spread   39  (  1.403492,  4.210416,  4.009303 )     1.05576245
  WF centre and spread   40  (  1.417003,  4.194858,  4.004946 )     1.21650254
  WF centre and spread   41  (  1.417044,  4.194765,  4.004968 )     1.21963938
  WF centre and spread   42  (  1.403566,  1.403602,  3.928434 )     1.05560161
  WF centre and spread   43  (  1.407880,  1.406131,  3.934387 )     1.19500510
  WF centre and spread   44  (  1.408357,  1.405420,  3.934211 )     1.19213011
  WF centre and spread   45  (  0.001131, -0.043717,  1.943099 )     1.49688664
  WF centre and spread   46  ( -0.000286, -0.049422,  1.985374 )     1.03371282
  WF centre and spread   47  ( -0.000638, -0.059731,  1.985321 )     1.03491933
  WF centre and spread   48  (  0.001161,  0.045314,  5.998669 )     1.47872134
  WF centre and spread   49  ( -0.001035,  0.050369,  5.954136 )     1.03182424
  WF centre and spread   50  ( -0.000096,  0.061619,  5.954006 )     1.03585631
  WF centre and spread   51  (  2.806680,  2.762867,  5.981095 )     1.43910633
  WF centre and spread   52  (  2.806854,  2.757642,  5.953840 )     1.03960801
  WF centre and spread   53  (  2.808498,  2.744776,  5.954237 )     1.03574292
  WF centre and spread   54  (  2.806453,  2.851868,  1.957159 )     1.41826091
  WF centre and spread   55  (  2.806802,  2.858424,  1.985556 )     1.03629605
  WF centre and spread   56  (  2.806848,  2.867919,  1.985159 )     1.03545918
  Sum of centres and spreads (112.497497,110.358487,135.805527 )   245.18857534

   9800    -0.128E-01     4.1054089601      245.1885753453     890.59  <-- CONV
        O_D=      1.2125018 O_OD=     81.5917779 O_TOT=    245.1885753 <-- SPRD
 Delta: O_D=  0.3699144E-03 O_OD= -0.1320337E-01 O_TOT= -0.1283345E-01 <-- DLTA
 ------------------------------------------------------------------------------
 Cycle:  10000
  WF centre and spread    1  ( -0.000110, -0.000122,  0.000062 )     1.36650598
  WF centre and spread    2  ( -0.000034,  0.000109,  0.000132 )     1.36657535
  WF centre and spread    3  ( -0.000561,  0.000799,  0.000019 )     1.36078226
  WF centre and spread    4  ( -0.000104, -0.000129,  3.969305 )     1.36449415
  WF centre and spread    5  (  0.000153, -0.000140,  3.969735 )     1.36532565
  WF centre and spread    6  ( -0.000048,  0.000714,  3.969658 )     1.35819996
  WF centre and spread    7  (  2.806923,  2.806900,  3.969884 )     1.36629427
  WF centre and spread    8  (  2.806980,  2.806941,  3.969815 )     1.36595075
  WF centre and spread    9  (  2.807399,  2.807951,  3.969653 )     1.35558426
  WF centre and spread   10  (  2.807067,  2.807071,  0.000251 )     1.36447542
  WF centre and spread   11  (  2.806898,  2.806968, -0.000206 )     1.36580200
  WF centre and spread   12  (  2.807326,  2.808121,  0.000008 )     1.35662400
  WF centre and spread   13  ( -1.169893, -0.428281,  0.293792 )    27.63892769
  WF centre and spread   14  (  0.094274, -0.059002,  0.000800 )    12.08592383
  WF centre and spread   15  (  1.704429,  0.364591,  4.513441 )    26.66032824
  WF centre and spread   16  (  0.231890, -0.226628,  3.928128 )    16.68357269
  WF centre and spread   17  (  3.037599,  3.484837,  3.676216 )    24.50518411
  WF centre and spread   18  (  0.796247,  0.848856,  3.938500 )    17.00458191
  WF centre and spread   19  (  4.089550,  3.411179,  0.398829 )    24.43770032
  WF centre and spread   20  (  2.710088,  1.902816, -0.020089 )    37.09943148
  WF centre and spread   21  (  1.403593,  4.210514, -0.042736 )     1.06705715
  WF centre and spread   22  (  1.430916,  4.179612, -0.035445 )     1.30275814
  WF centre and spread   23  (  1.427957,  4.183044, -0.035367 )     1.30679858
  WF centre and spread   24  (  1.403226,  1.403508,  0.041631 )     1.07208651
  WF centre and spread   25  (  1.429416,  1.427193,  0.035576 )     1.29367064
  WF centre and spread   26  (  1.432443,  1.425339,  0.035511 )     1.29285491
  WF centre and spread   27  (  4.210538,  1.403473,  3.928387 )     1.05563888
  WF centre and spread   28  (  4.196551,  1.414618,  3.934117 )     1.23961189
  WF centre and spread   29  (  4.197938,  1.416155,  3.934005 )     1.23577052
  WF centre and spread   30  (  4.210415,  4.210518,  4.011005 )     1.05420751
  WF centre and spread   31  (  4.204594,  4.204355,  4.005167 )     1.24429435
  WF centre and spread   32  (  4.202808,  4.200670,  4.005245 )     1.24927994
  WF centre and spread   33  (  4.210524,  1.403549,  0.040918 )     1.06970359
  WF centre and spread   34  (  4.189722,  1.424355,  0.035721 )     1.29264175
  WF centre and spread   35  (  4.187473,  1.423654,  0.035479 )     1.28524779
  WF centre and spread   36  (  4.210402,  4.210360, -0.041650 )     1.06949356
  WF centre and spread   37  (  4.190186,  4.188924, -0.035452 )     1.28945850
  WF centre and spread   38  (  4.190418,  4.186783, -0.035342 )     1.29037417
  WF centre and spread   39  (  1.403495,  4.210418,  4.009287 )     1.05492162
  WF centre and spread   40  (  1.417384,  4.194537,  4.004938 )     1.21739481
  WF centre and spread   41  (  1.417406,  4.194433,  4.004978 )     1.22035866
  WF centre and spread   42  (  1.403567,  1.403605,  3.928462 )     1.05555560
  WF centre and spread   43  (  1.408585,  1.406781,  3.934380 )     1.19574471
  WF centre and spread   44  (  1.408881,  1.406021,  3.934202 )     1.19287087
  WF centre and spread   45  (  0.001071, -0.043758,  1.942534 )     1.49752277
  WF centre and spread   46  ( -0.000235, -0.049446,  1.985377 )     1.03414857
  WF centre and spread   47  ( -0.000588, -0.059766,  1.985334 )     1.03505938
  WF centre and spread   48  (  0.001129,  0.045282,  5.999243 )     1.48005389
  WF centre and spread   49  ( -0.001009,  0.050332,  5.954094 )     1.03266359
  WF centre and spread   50  ( -0.000065,  0.061567,  5.954003 )     1.03624395
  WF centre and spread   51  (  2.806712,  2.762817,  5.981272 )     1.44020469
  WF centre and spread   52  (  2.806896,  2.757642,  5.953818 )     1.04045599
  WF centre and spread   53  (  2.808419,  2.744729,  5.954251 )     1.03599866
  WF centre and spread   54  (  2.806480,  2.851848,  1.956945 )     1.41968240
  WF centre and spread   55  (  2.806854,  2.858383,  1.985566 )     1.03670182
  WF centre and spread   56  (  2.806806,  2.867820,  1.985169 )     1.03532714
  Sum of centres and spreads (112.566983,110.323422,135.818556 )   245.24412183

  10000    -0.156E-01     6.1588171377      245.2441218297     908.48  <-- CONV
        O_D=      1.4317327 O_OD=     81.4280935 O_TOT=    245.2441218 <-- SPRD
 Delta: O_D= -0.1213293E-01 O_OD= -0.3445144E-02 O_TOT= -0.1557808E-01 <-- DLTA
 ------------------------------------------------------------------------------
 Final State
  WF centre and spread    1  ( -0.000110, -0.000122,  0.000062 )     1.36650598
  WF centre and spread    2  ( -0.000034,  0.000109,  0.000132 )     1.36657535
  WF centre and spread    3  ( -0.000561,  0.000799,  0.000019 )     1.36078226
  WF centre and spread    4  ( -0.000104, -0.000129,  3.969305 )     1.36449415
  WF centre and spread    5  (  0.000153, -0.000140,  3.969735 )     1.36532565
  WF centre and spread    6  ( -0.000048,  0.000714,  3.969658 )     1.35819996
  WF centre and spread    7  (  2.806923,  2.806900,  3.969884 )     1.36629427
  WF centre and spread    8  (  2.806980,  2.806941,  3.969815 )     1.36595075
  WF centre and spread    9  (  2.807399,  2.807951,  3.969653 )     1.35558426
  WF centre and spread   10  (  2.807067,  2.807071,  0.000251 )     1.36447542
  WF centre and spread   11  (  2.806898,  2.806968, -0.000206 )     1.36580200
  WF centre and spread   12  (  2.807326,  2.808121,  0.000008 )     1.35662400
  WF centre and spread   13  ( -1.169893, -0.428281,  0.293792 )    27.63892769
  WF centre and spread   14  (  0.094274, -0.059002,  0.000800 )    12.08592383
  WF centre and spread   15  (  1.704429,  0.364591,  4.513441 )    26.66032824
  WF centre and spread   16  (  0.231890, -0.226628,  3.928128 )    16.68357269
  WF centre and spread   17  (  3.037599,  3.484837,  3.676216 )    24.50518411
  WF centre and spread   18  (  0.796247,  0.848856,  3.938500 )    17.00458191
  WF centre and spread   19  (  4.089550,  3.411179,  0.398829 )    24.43770032
  WF centre and spread   20  (  2.710088,  1.902816, -0.020089 )    37.09943148
  WF centre and spread   21  (  1.403593,  4.210514, -0.042736 )     1.06705715
  WF centre and spread   22  (  1.430916,  4.179612, -0.035445 )     1.30275814
  WF centre and spread   23  (  1.427957,  4.183044, -0.035367 )     1.30679858
  WF centre and spread   24  (  1.403226,  1.403508,  0.041631 )     1.07208651
  WF centre and spread   25  (  1.429416,  1.427193,  0.035576 )     1.29367064
  WF centre and spread   26  (  1.432443,  1.425339,  0.035511 )     1.29285491
  WF centre and spread   27  (  4.210538,  1.403473,  3.928387 )     1.05563888
  WF centre and spread   28  (  4.196551,  1.414618,  3.934117 )     1.23961189
  WF centre and spread   29  (  4.197938,  1.416155,  3.934005 )     1.23577052
  WF centre and spread   30  (  4.210415,  4.210518,  4.011005 )     1.05420751
  WF centre and spread   31  (  4.204594,  4.204355,  4.005167 )     1.24429435
  WF centre and spread   32  (  4.202808,  4.200670,  4.005245 )     1.24927994
  WF centre and spread   33  (  4.210524,  1.403549,  0.040918 )     1.06970359
  WF centre and spread   34  (  4.189722,  1.424355,  0.035721 )     1.29264175
  WF centre and spread   35  (  4.187473,  1.423654,  0.035479 )     1.28524779
  WF centre and spread   36  (  4.210402,  4.210360, -0.041650 )     1.06949356
  WF centre and spread   37  (  4.190186,  4.188924, -0.035452 )     1.28945850
  WF centre and spread   38  (  4.190418,  4.186783, -0.035342 )     1.29037417
  WF centre and spread   39  (  1.403495,  4.210418,  4.009287 )     1.05492162
  WF centre and spread   40  (  1.417384,  4.194537,  4.004938 )     1.21739481
  WF centre and spread   41  (  1.417406,  4.194433,  4.004978 )     1.22035866
  WF centre and spread   42  (  1.403567,  1.403605,  3.928462 )     1.05555560
  WF centre and spread   43  (  1.408585,  1.406781,  3.934380 )     1.19574471
  WF centre and spread   44  (  1.408881,  1.406021,  3.934202 )     1.19287087
  WF centre and spread   45  (  0.001071, -0.043758,  1.942534 )     1.49752277
  WF centre and spread   46  ( -0.000235, -0.049446,  1.985377 )     1.03414857
  WF centre and spread   47  ( -0.000588, -0.059766,  1.985334 )     1.03505938
  WF centre and spread   48  (  0.001129,  0.045282,  5.999243 )     1.48005389
  WF centre and spread   49  ( -0.001009,  0.050332,  5.954094 )     1.03266359
  WF centre and spread   50  ( -0.000065,  0.061567,  5.954003 )     1.03624395
  WF centre and spread   51  (  2.806712,  2.762817,  5.981272 )     1.44020469
  WF centre and spread   52  (  2.806896,  2.757642,  5.953818 )     1.04045599
  WF centre and spread   53  (  2.808419,  2.744729,  5.954251 )     1.03599866
  WF centre and spread   54  (  2.806480,  2.851848,  1.956945 )     1.41968240
  WF centre and spread   55  (  2.806854,  2.858383,  1.985566 )     1.03670182
  WF centre and spread   56  (  2.806806,  2.867820,  1.985169 )     1.03532714
  Sum of centres and spreads (112.566983,110.323422,135.818556 )   245.24412183

         Spreads (Ang^2)       Omega I      =   162.384295667
        ================       Omega D      =     1.431732707
                               Omega OD     =    81.428093455
    Final Spread (Ang^2)       Omega Total  =   245.244121830
 ------------------------------------------------------------------------------

 Writing checkpoint file smo.chk... done

 *---------------------------------------------------------------------------*
 |                               PLOTTING                                    |
 *---------------------------------------------------------------------------*


 Calculating interpolated band-structure

 Time to calculate interpolated band structure       2.127 (sec)

  
  Omega Invariant:   1-s^2 =   162.384295666 (Ang^2)
                   -2log s =  1479.143780305 (Ang^2)
                    acos^2 =   288.997675289 (Ang^2)

 *===========================================================================*
 |                             TIMING INFORMATION                            |
 *===========================================================================*
 |    Tag                                                Ncalls      Time (s)|
 |---------------------------------------------------------------------------|
 |kmesh: get                                        :         1         0.116|
 |overlap: read                                     :         1         4.611|
 |wann: main                                        :         1       907.149|
 |plot: main                                        :         1         6.272|
 *---------------------------------------------------------------------------*
 All done: wannier90 exiting
