
     Program PWSCF v.7.5 starts on 29Nov2025 at 20:36:15 
        Git branch: develop
        Last git commit: 70e07caa2a5fab3dd9374bc01196f67e923fc5ea
        Last git commit date: Mon Aug 18 10:06:47 2025 +0000
        Last git commit subject: Merge branch 'stressed-by-optional-variables' into

     This program is part of the open-source Quantum ESPRESSO suite
     for quantum simulation of materials; please cite
         "P. Giannozzi et al., J. Phys.:Condens. Matter 21 395502 (2009);
         "P. Giannozzi et al., J. Phys.:Condens. Matter 29 465901 (2017);
         "P. Giannozzi et al., J. Chem. Phys. 152 154105 (2020);
          URL http://www.quantum-espresso.org", 
     in publications or presentations arising from this work. More details at
     http://www.quantum-espresso.org/quote

     Parallel version (MPI), running on   128 processors

     MPI processes distributed on     1 nodes
     955785 MiB available memory on the printing compute node when the environment starts

     Waiting for input...
     Reading input from standard input

     Current dimensions of program PWSCF are:
     Max number of different atomic species (ntypx) = 10
     Max number of k-points (npk) =  40000
     Max angular momentum in pseudopotentials (lmaxx) =  4
     file Sr.pz-spn-kjpaw_psl.1.0.0.UPF: wavefunction(s)  4P renormalized
     file Mo.pz-spn-kjpaw_psl.1.0.0.UPF: wavefunction(s)  4S 4D renormalized
     file O.pz-n-kjpaw_psl.1.0.0.UPF: wavefunction(s)  2S 2P renormalized

     Atomic positions and unit cell read from directory:
     ./out/smo.save/

     Found identity + (  0.5000 -0.5000 -0.5000) symmetry
     This is a supercell, fractional translations are disabled
     Message from routine setup:
     using ibrav=0 with symmetry is DISCOURAGED, use correct ibrav instead

     K-points division:     npool     =     128
     Subspace diagonalization in iterative solution of the eigenvalue problem:
     a serial algorithm will be used

     Message from routine divide_et_impera:
     suboptimal parallelization: some nodes have no k-points

     G-vector sticks info
     --------------------
     sticks:   dense  smooth     PW     G-vecs:    dense   smooth      PW
     Sum        5385    2701    749               419469   148351   21815

     Using Slab Decomposition



     bravais-lattice index     =            0
     lattice parameter (alat)  =      10.6088  a.u.
     unit-cell volume          =    1688.5722 (a.u.)^3
     number of atoms/cell      =           20
     number of atomic types    =            3
     number of electrons       =       168.00
     number of Kohn-Sham states=          101
     kinetic-energy cutoff     =      75.0000  Ry
     charge density cutoff     =     600.0000  Ry
     Exchange-correlation= SLA  PZ   NOGX NOGC
                           (   1   1   0   0   0   0   0)

     celldm(1)=  10.608847  celldm(2)=   0.000000  celldm(3)=   0.000000
     celldm(4)=   0.000000  celldm(5)=   0.000000  celldm(6)=   0.000000

     crystal axes: (cart. coord. in units of alat)
               a(1) = (   1.000000   0.000000   0.000000 )  
               a(2) = (   0.000000   1.000000   0.000000 )  
               a(3) = (   0.000000   0.000000   1.414214 )  

     reciprocal axes: (cart. coord. in units 2 pi/alat)
               b(1) = (  1.000000  0.000000  0.000000 )  
               b(2) = (  0.000000  1.000000  0.000000 )  
               b(3) = (  0.000000  0.000000  0.707107 )  


     PseudoPot. # 1 for Sr read from file:
     ./pseudo/Sr.pz-spn-kjpaw_psl.1.0.0.UPF
     MD5 check sum: 14b1f655f5497b386c4f305353cf4fd4
     Pseudo is Projector augmented-wave + core cor, Zval = 10.0
     Generated using 'atomic' code by A. Dal Corso  v.7.3
     Shape of augmentation charge: PSQ
     Using radial grid of 1221 points,  6 beta functions with: 
                l(1) =   0
                l(2) =   0
                l(3) =   1
                l(4) =   1
                l(5) =   2
                l(6) =   2
     Q(r) pseudized with 0 coefficients 


     PseudoPot. # 2 for Mo read from file:
     ./pseudo/Mo.pz-spn-kjpaw_psl.1.0.0.UPF
     MD5 check sum: 2e12aff744a4785a34e7548d4bec1d21
     Pseudo is Projector augmented-wave + core cor, Zval = 14.0
     Generated using 'atomic' code by A. Dal Corso  v.7.3
     Shape of augmentation charge: PSQ
     Using radial grid of 1229 points,  6 beta functions with: 
                l(1) =   0
                l(2) =   0
                l(3) =   1
                l(4) =   1
                l(5) =   2
                l(6) =   2
     Q(r) pseudized with 0 coefficients 


     PseudoPot. # 3 for O  read from file:
     ./pseudo/O.pz-n-kjpaw_psl.1.0.0.UPF
     MD5 check sum: 71a951e35f67dc87891058fc5642ed8f
     Pseudo is Projector augmented-wave + core cor, Zval =  6.0
     Generated using 'atomic' code by A. Dal Corso  v.7.3
     Shape of augmentation charge: PSQ
     Using radial grid of 1095 points,  4 beta functions with: 
                l(1) =   0
                l(2) =   0
                l(3) =   1
                l(4) =   1
     Q(r) pseudized with 0 coefficients 


     atomic species   valence    mass     pseudopotential
     Sr               10.00    87.62000     Sr( 1.00)
     Mo               14.00    95.95000     Mo( 1.00)
     O                 6.00    15.99900     O ( 1.00)

      4 Sym. Ops., with inversion, found


                                    s                        frac. trans.

      isym =  1     identity                                     

 cryst.   s( 1) = (     1          0          0      )
                  (     0          1          0      )
                  (     0          0          1      )

 cart.    s( 1) = (  1.0000000  0.0000000  0.0000000 )
                  (  0.0000000  1.0000000  0.0000000 )
                  (  0.0000000  0.0000000  1.0000000 )


      isym =  2     180 deg rotation - cart. axis [1,0,0]        

 cryst.   s( 2) = (     1          0          0      )
                  (     0         -1          0      )
                  (     0          0         -1      )

 cart.    s( 2) = (  1.0000000  0.0000000  0.0000000 )
                  (  0.0000000 -1.0000000  0.0000000 )
                  (  0.0000000  0.0000000 -1.0000000 )


      isym =  3     inversion                                    

 cryst.   s( 3) = (    -1          0          0      )
                  (     0         -1          0      )
                  (     0          0         -1      )

 cart.    s( 3) = ( -1.0000000  0.0000000  0.0000000 )
                  (  0.0000000 -1.0000000  0.0000000 )
                  (  0.0000000  0.0000000 -1.0000000 )


      isym =  4     inv. 180 deg rotation - cart. axis [1,0,0]   

 cryst.   s( 4) = (    -1          0          0      )
                  (     0          1          0      )
                  (     0          0          1      )

 cart.    s( 4) = ( -1.0000000  0.0000000  0.0000000 )
                  (  0.0000000  1.0000000  0.0000000 )
                  (  0.0000000  0.0000000  1.0000000 )


   Cartesian axes

     site n.     atom                  positions (alat units)
         1        Sr     tau(   1) = (   0.0000000   0.5000000   0.3535535  )
         2        Sr     tau(   2) = (   0.0000000   0.5000000   1.0606604  )
         3        Sr     tau(   3) = (   0.5000000   0.0000000   1.0606604  )
         4        Sr     tau(   4) = (   0.5000000   0.0000000   0.3535535  )
         5        Mo     tau(   5) = (   0.0000000   0.0000000   0.0000000  )
         6        Mo     tau(   6) = (   0.0000000   0.0000000   0.7071069  )
         7        Mo     tau(   7) = (   0.5000000   0.5000000   0.7071069  )
         8        Mo     tau(   8) = (   0.5000000   0.5000000   0.0000000  )
         9        O      tau(   9) = (   0.2500000   0.7500000   0.0314875  )
        10        O      tau(  10) = (   0.2500000   0.2500000  -0.0314875  )
        11        O      tau(  11) = (   0.7500000   0.2500000   0.7385944  )
        12        O      tau(  12) = (   0.7500000   0.7500000   0.6756195  )
        13        O      tau(  13) = (   0.7500000   0.2500000  -0.0314875  )
        14        O      tau(  14) = (   0.7500000   0.7500000   0.0314875  )
        15        O      tau(  15) = (   0.2500000   0.7500000   0.6756195  )
        16        O      tau(  16) = (   0.2500000   0.2500000   0.7385944  )
        17        O      tau(  17) = (   0.0000000   0.0445300   0.3535535  )
        18        O      tau(  18) = (   0.0000000  -0.0445300   1.0606604  )
        19        O      tau(  19) = (   0.5000000   0.5445300   1.0606604  )
        20        O      tau(  20) = (   0.5000000   0.4554700   0.3535535  )

   Crystallographic axes

     site n.     atom                  positions (cryst. coord.)
         1        Sr     tau(   1) = (  0.0000000  0.5000000  0.2500000  )
         2        Sr     tau(   2) = (  0.0000000  0.5000000  0.7500000  )
         3        Sr     tau(   3) = (  0.5000000  0.0000000  0.7500000  )
         4        Sr     tau(   4) = (  0.5000000  0.0000000  0.2500000  )
         5        Mo     tau(   5) = (  0.0000000  0.0000000  0.0000000  )
         6        Mo     tau(   6) = (  0.0000000  0.0000000  0.5000000  )
         7        Mo     tau(   7) = (  0.5000000  0.5000000  0.5000000  )
         8        Mo     tau(   8) = (  0.5000000  0.5000000  0.0000000  )
         9        O      tau(   9) = (  0.2500000  0.7500000  0.0222650  )
        10        O      tau(  10) = (  0.2500000  0.2500000 -0.0222650  )
        11        O      tau(  11) = (  0.7500000  0.2500000  0.5222650  )
        12        O      tau(  12) = (  0.7500000  0.7500000  0.4777350  )
        13        O      tau(  13) = (  0.7500000  0.2500000 -0.0222650  )
        14        O      tau(  14) = (  0.7500000  0.7500000  0.0222650  )
        15        O      tau(  15) = (  0.2500000  0.7500000  0.4777350  )
        16        O      tau(  16) = (  0.2500000  0.2500000  0.5222650  )
        17        O      tau(  17) = (  0.0000000  0.0445300  0.2500000  )
        18        O      tau(  18) = (  0.0000000 -0.0445300  0.7500000  )
        19        O      tau(  19) = (  0.5000000  0.5445300  0.7500000  )
        20        O      tau(  20) = (  0.5000000  0.4554700  0.2500000  )

     number of k points=    71  Marzari-Vanderbilt smearing, width (Ry)=  0.0147
                       cart. coord. in units 2pi/alat
        k(    1) = (   0.0000000   0.0000000   0.0000000), wk =   0.0281690
        k(    2) = (   0.0000000   0.0500000   0.0000000), wk =   0.0281690
        k(    3) = (   0.0000000   0.1000000   0.0000000), wk =   0.0281690
        k(    4) = (   0.0000000   0.1500000   0.0000000), wk =   0.0281690
        k(    5) = (   0.0000000   0.2000000   0.0000000), wk =   0.0281690
        k(    6) = (   0.0000000   0.2500000   0.0000000), wk =   0.0281690
        k(    7) = (   0.0000000   0.3000000   0.0000000), wk =   0.0281690
        k(    8) = (   0.0000000   0.3500000   0.0000000), wk =   0.0281690
        k(    9) = (   0.0000000   0.4000000   0.0000000), wk =   0.0281690
        k(   10) = (   0.0000000   0.4500000   0.0000000), wk =   0.0281690
        k(   11) = (   0.0000000   0.5000000   0.0000000), wk =   0.0281690
        k(   12) = (   0.0500000   0.5000000   0.0000000), wk =   0.0281690
        k(   13) = (   0.1000000   0.5000000   0.0000000), wk =   0.0281690
        k(   14) = (   0.1500000   0.5000000   0.0000000), wk =   0.0281690
        k(   15) = (   0.2000000   0.5000000   0.0000000), wk =   0.0281690
        k(   16) = (   0.2500000   0.5000000   0.0000000), wk =   0.0281690
        k(   17) = (   0.3000000   0.5000000   0.0000000), wk =   0.0281690
        k(   18) = (   0.3500000   0.5000000   0.0000000), wk =   0.0281690
        k(   19) = (   0.4000000   0.5000000   0.0000000), wk =   0.0281690
        k(   20) = (   0.4500000   0.5000000   0.0000000), wk =   0.0281690
        k(   21) = (   0.5000000   0.5000000   0.0000000), wk =   0.0281690
        k(   22) = (   0.4500000   0.4500000   0.0000000), wk =   0.0281690
        k(   23) = (   0.4000000   0.4000000   0.0000000), wk =   0.0281690
        k(   24) = (   0.3500000   0.3500000   0.0000000), wk =   0.0281690
        k(   25) = (   0.3000000   0.3000000   0.0000000), wk =   0.0281690
        k(   26) = (   0.2500000   0.2500000   0.0000000), wk =   0.0281690
        k(   27) = (   0.2000000   0.2000000   0.0000000), wk =   0.0281690
        k(   28) = (   0.1500000   0.1500000   0.0000000), wk =   0.0281690
        k(   29) = (   0.1000000   0.1000000   0.0000000), wk =   0.0281690
        k(   30) = (   0.0500000   0.0500000   0.0000000), wk =   0.0281690
        k(   31) = (   0.0000000   0.0000000   0.0000000), wk =   0.0281690
        k(   32) = (   0.0000000   0.0000000   0.0353553), wk =   0.0281690
        k(   33) = (   0.0000000   0.0000000   0.0707107), wk =   0.0281690
        k(   34) = (   0.0000000   0.0000000   0.1060660), wk =   0.0281690
        k(   35) = (   0.0000000   0.0000000   0.1414213), wk =   0.0281690
        k(   36) = (   0.0000000   0.0000000   0.1767767), wk =   0.0281690
        k(   37) = (   0.0000000   0.0000000   0.2121320), wk =   0.0281690
        k(   38) = (   0.0000000   0.0000000   0.2474873), wk =   0.0281690
        k(   39) = (   0.0000000   0.0000000   0.2828427), wk =   0.0281690
        k(   40) = (   0.0000000   0.0000000   0.3181980), wk =   0.0281690
        k(   41) = (   0.0000000   0.0000000   0.3535533), wk =   0.0281690
        k(   42) = (   0.0000000   0.0500000   0.3535533), wk =   0.0281690
        k(   43) = (   0.0000000   0.1000000   0.3535533), wk =   0.0281690
        k(   44) = (   0.0000000   0.1500000   0.3535533), wk =   0.0281690
        k(   45) = (   0.0000000   0.2000000   0.3535533), wk =   0.0281690
        k(   46) = (   0.0000000   0.2500000   0.3535533), wk =   0.0281690
        k(   47) = (   0.0000000   0.3000000   0.3535533), wk =   0.0281690
        k(   48) = (   0.0000000   0.3500000   0.3535533), wk =   0.0281690
        k(   49) = (   0.0000000   0.4000000   0.3535533), wk =   0.0281690
        k(   50) = (   0.0000000   0.4500000   0.3535533), wk =   0.0281690
        k(   51) = (   0.0000000   0.5000000   0.3535533), wk =   0.0281690
        k(   52) = (   0.0500000   0.5000000   0.3535533), wk =   0.0281690
        k(   53) = (   0.1000000   0.5000000   0.3535533), wk =   0.0281690
        k(   54) = (   0.1500000   0.5000000   0.3535533), wk =   0.0281690
        k(   55) = (   0.2000000   0.5000000   0.3535533), wk =   0.0281690
        k(   56) = (   0.2500000   0.5000000   0.3535533), wk =   0.0281690
        k(   57) = (   0.3000000   0.5000000   0.3535533), wk =   0.0281690
        k(   58) = (   0.3500000   0.5000000   0.3535533), wk =   0.0281690
        k(   59) = (   0.4000000   0.5000000   0.3535533), wk =   0.0281690
        k(   60) = (   0.4500000   0.5000000   0.3535533), wk =   0.0281690
        k(   61) = (   0.5000000   0.5000000   0.3535533), wk =   0.0281690
        k(   62) = (   0.4500000   0.4500000   0.3535533), wk =   0.0281690
        k(   63) = (   0.4000000   0.4000000   0.3535533), wk =   0.0281690
        k(   64) = (   0.3500000   0.3500000   0.3535533), wk =   0.0281690
        k(   65) = (   0.3000000   0.3000000   0.3535533), wk =   0.0281690
        k(   66) = (   0.2500000   0.2500000   0.3535533), wk =   0.0281690
        k(   67) = (   0.2000000   0.2000000   0.3535533), wk =   0.0281690
        k(   68) = (   0.1500000   0.1500000   0.3535533), wk =   0.0281690
        k(   69) = (   0.1000000   0.1000000   0.3535533), wk =   0.0281690
        k(   70) = (   0.0500000   0.0500000   0.3535533), wk =   0.0281690
        k(   71) = (   0.0000000   0.0000000   0.3535533), wk =   0.0281690

                       cryst. coord.
        k(    1) = (   0.0000000   0.0000000   0.0000000), wk =   0.0281690
        k(    2) = (   0.0000000   0.0500000   0.0000000), wk =   0.0281690
        k(    3) = (   0.0000000   0.1000000   0.0000000), wk =   0.0281690
        k(    4) = (   0.0000000   0.1500000   0.0000000), wk =   0.0281690
        k(    5) = (   0.0000000   0.2000000   0.0000000), wk =   0.0281690
        k(    6) = (   0.0000000   0.2500000   0.0000000), wk =   0.0281690
        k(    7) = (   0.0000000   0.3000000   0.0000000), wk =   0.0281690
        k(    8) = (   0.0000000   0.3500000   0.0000000), wk =   0.0281690
        k(    9) = (   0.0000000   0.4000000   0.0000000), wk =   0.0281690
        k(   10) = (   0.0000000   0.4500000   0.0000000), wk =   0.0281690
        k(   11) = (   0.0000000   0.5000000   0.0000000), wk =   0.0281690
        k(   12) = (   0.0500000   0.5000000   0.0000000), wk =   0.0281690
        k(   13) = (   0.1000000   0.5000000   0.0000000), wk =   0.0281690
        k(   14) = (   0.1500000   0.5000000   0.0000000), wk =   0.0281690
        k(   15) = (   0.2000000   0.5000000   0.0000000), wk =   0.0281690
        k(   16) = (   0.2500000   0.5000000   0.0000000), wk =   0.0281690
        k(   17) = (   0.3000000   0.5000000   0.0000000), wk =   0.0281690
        k(   18) = (   0.3500000   0.5000000   0.0000000), wk =   0.0281690
        k(   19) = (   0.4000000   0.5000000   0.0000000), wk =   0.0281690
        k(   20) = (   0.4500000   0.5000000   0.0000000), wk =   0.0281690
        k(   21) = (   0.5000000   0.5000000   0.0000000), wk =   0.0281690
        k(   22) = (   0.4500000   0.4500000   0.0000000), wk =   0.0281690
        k(   23) = (   0.4000000   0.4000000   0.0000000), wk =   0.0281690
        k(   24) = (   0.3500000   0.3500000   0.0000000), wk =   0.0281690
        k(   25) = (   0.3000000   0.3000000   0.0000000), wk =   0.0281690
        k(   26) = (   0.2500000   0.2500000   0.0000000), wk =   0.0281690
        k(   27) = (   0.2000000   0.2000000   0.0000000), wk =   0.0281690
        k(   28) = (   0.1500000   0.1500000   0.0000000), wk =   0.0281690
        k(   29) = (   0.1000000   0.1000000   0.0000000), wk =   0.0281690
        k(   30) = (   0.0500000   0.0500000   0.0000000), wk =   0.0281690
        k(   31) = (   0.0000000   0.0000000   0.0000000), wk =   0.0281690
        k(   32) = (   0.0000000   0.0000000   0.0500000), wk =   0.0281690
        k(   33) = (   0.0000000   0.0000000   0.1000000), wk =   0.0281690
        k(   34) = (   0.0000000   0.0000000   0.1500000), wk =   0.0281690
        k(   35) = (   0.0000000   0.0000000   0.2000000), wk =   0.0281690
        k(   36) = (   0.0000000   0.0000000   0.2500000), wk =   0.0281690
        k(   37) = (   0.0000000   0.0000000   0.3000000), wk =   0.0281690
        k(   38) = (   0.0000000   0.0000000   0.3500000), wk =   0.0281690
        k(   39) = (   0.0000000   0.0000000   0.4000000), wk =   0.0281690
        k(   40) = (   0.0000000   0.0000000   0.4500000), wk =   0.0281690
        k(   41) = (   0.0000000   0.0000000   0.5000000), wk =   0.0281690
        k(   42) = (   0.0000000   0.0500000   0.5000000), wk =   0.0281690
        k(   43) = (   0.0000000   0.1000000   0.5000000), wk =   0.0281690
        k(   44) = (   0.0000000   0.1500000   0.5000000), wk =   0.0281690
        k(   45) = (   0.0000000   0.2000000   0.5000000), wk =   0.0281690
        k(   46) = (   0.0000000   0.2500000   0.5000000), wk =   0.0281690
        k(   47) = (   0.0000000   0.3000000   0.5000000), wk =   0.0281690
        k(   48) = (   0.0000000   0.3500000   0.5000000), wk =   0.0281690
        k(   49) = (   0.0000000   0.4000000   0.5000000), wk =   0.0281690
        k(   50) = (   0.0000000   0.4500000   0.5000000), wk =   0.0281690
        k(   51) = (   0.0000000   0.5000000   0.5000000), wk =   0.0281690
        k(   52) = (   0.0500000   0.5000000   0.5000000), wk =   0.0281690
        k(   53) = (   0.1000000   0.5000000   0.5000000), wk =   0.0281690
        k(   54) = (   0.1500000   0.5000000   0.5000000), wk =   0.0281690
        k(   55) = (   0.2000000   0.5000000   0.5000000), wk =   0.0281690
        k(   56) = (   0.2500000   0.5000000   0.5000000), wk =   0.0281690
        k(   57) = (   0.3000000   0.5000000   0.5000000), wk =   0.0281690
        k(   58) = (   0.3500000   0.5000000   0.5000000), wk =   0.0281690
        k(   59) = (   0.4000000   0.5000000   0.5000000), wk =   0.0281690
        k(   60) = (   0.4500000   0.5000000   0.5000000), wk =   0.0281690
        k(   61) = (   0.5000000   0.5000000   0.5000000), wk =   0.0281690
        k(   62) = (   0.4500000   0.4500000   0.5000000), wk =   0.0281690
        k(   63) = (   0.4000000   0.4000000   0.5000000), wk =   0.0281690
        k(   64) = (   0.3500000   0.3500000   0.5000000), wk =   0.0281690
        k(   65) = (   0.3000000   0.3000000   0.5000000), wk =   0.0281690
        k(   66) = (   0.2500000   0.2500000   0.5000000), wk =   0.0281690
        k(   67) = (   0.2000000   0.2000000   0.5000000), wk =   0.0281690
        k(   68) = (   0.1500000   0.1500000   0.5000000), wk =   0.0281690
        k(   69) = (   0.1000000   0.1000000   0.5000000), wk =   0.0281690
        k(   70) = (   0.0500000   0.0500000   0.5000000), wk =   0.0281690
        k(   71) = (   0.0000000   0.0000000   0.5000000), wk =   0.0281690

     Dense  grid:   419469 G-vectors     FFT dimensions: (  90,  90, 120)

     Smooth grid:   148351 G-vectors     FFT dimensions: (  60,  60,  90)

     Dynamical RAM for                 wfc:      28.54 MB

     Dynamical RAM for     wfc (w. buffer):      28.54 MB

     Dynamical RAM for           str. fact:      19.20 MB

     Dynamical RAM for           local pot:       0.00 MB

     Dynamical RAM for          nlocal pot:      67.83 MB

     Dynamical RAM for                qrad:       5.90 MB

     Dynamical RAM for          rho,v,vnew:      41.45 MB

     Dynamical RAM for           G-vectors:      25.13 MB

     Dynamical RAM for          h,s,v(r/c):       1.87 MB

     Dynamical RAM for          <psi|beta>:       0.37 MB

     Dynamical RAM for                 psi:      57.09 MB

     Dynamical RAM for                hpsi:      57.09 MB

     Dynamical RAM for                spsi:      57.09 MB

     Dynamical RAM for      wfcinit/wfcrot:      57.32 MB

     Dynamical RAM for           addusdens:      16.25 MB

     Estimated static dynamical RAM per process >     250.73 MB

     Estimated max dynamical RAM per process >     424.23 MB

     Estimated total dynamical RAM >      53.03 GB

     The potential is recalculated from file :
     ./out/smo.save/charge-density

     Starting wfcs are  120 randomized atomic wfcs
     Checking if some PAW data can be deallocated... 
       PAW data deallocated on  100 nodes for type:  1
       PAW data deallocated on  100 nodes for type:  2
       PAW data deallocated on   56 nodes for type:  3

     Band Structure Calculation
     Davidson diagonalization with overlap

     Computing kpt #:     1  of     1 on this pool
     c_bands:  2 eigenvalues not converged
     total cpu time spent up to now is       97.1 secs

     ethr =  2.38E-13,  avg # of iterations =120.0

     total cpu time spent up to now is      110.8 secs

     End of band structure calculation

          k = 0.0000 0.0000 0.0000 ( 18577 PWs)   bands (ev):

   -49.0202 -49.0188 -49.0175 -49.0162 -23.3256 -23.3182 -23.3143 -23.3087
   -23.3031 -23.2991 -23.2417 -23.2394 -23.2383 -23.2309 -23.2269 -23.2236
   -22.0141 -21.9828 -21.9767 -21.9610  -6.9929  -6.7424  -6.2840  -6.1803
    -6.1222  -6.0363  -5.8984  -5.8086  -5.4121  -5.3993  -5.3606  -5.3295
    -4.3203  -4.2537  -4.1523  -4.0495  -4.0123  -3.9829  -3.9755  -3.9703
    -3.9679  -3.6563  -3.5670  -3.5552   5.1581   5.1821   5.2121   5.2980
     5.3314   5.4252   5.6124   6.2653   6.2771   6.2794   7.1976   7.2059
     7.6706   7.6809   7.6894   7.7150   7.7614   7.7649   7.7898   7.8345
     8.1330   8.6757   8.7343   8.8304   9.0139   9.0850   9.1168   9.3972
     9.4282   9.6847   9.6952   9.7220   9.9393   9.9990  10.0759  10.1109
    11.6616  11.6958  11.7387  11.8137  13.9769  14.1075  14.2334  14.2840
    14.7547  15.0110  15.0926  15.2979  15.5220  15.6323  15.7387  15.8275
    16.0300  16.1061  16.5044  17.0639  17.1617

          k = 0.0000 0.0500 0.0000 ( 18595 PWs)   bands (ev):

   -49.0201 -49.0188 -49.0176 -49.0162 -23.3254 -23.3179 -23.3139 -23.3087
   -23.3027 -23.2986 -23.2424 -23.2399 -23.2382 -23.2310 -23.2274 -23.2240
   -22.0137 -21.9827 -21.9768 -21.9612  -6.9853  -6.7422  -6.2984  -6.1783
    -6.1200  -6.0324  -5.8872  -5.8103  -5.4272  -5.4051  -5.3691  -5.3345
    -4.3127  -4.2531  -4.1426  -4.0470  -4.0145  -3.9814  -3.9764  -3.9617
    -3.9617  -3.6590  -3.5686  -3.5577   5.1745   5.1983   5.2188   5.2981
     5.3466   5.4402   5.6223   6.2724   6.2727   6.2801   7.2047   7.2094
     7.5226   7.6354   7.6545   7.7118   7.7444   7.7589   7.7809   7.9889
     8.1880   8.6786   8.7265   8.8359   8.9761   9.0600   9.1157   9.3593
     9.4060   9.6477   9.6833   9.6965   9.9447  10.0008  10.0687  10.1017
    11.6815  11.7332  11.7614  11.8527  13.9797  14.1031  14.2348  14.2694
    14.7572  15.0246  15.0734  15.2774  15.5565  15.6516  15.7560  15.8265
    16.0564  16.1235  16.5027  17.0808  17.1924

          k = 0.0000 0.1000 0.0000 ( 18565 PWs)   bands (ev):

   -49.0201 -49.0188 -49.0176 -49.0163 -23.3250 -23.3168 -23.3126 -23.3089
   -23.3013 -23.2973 -23.2441 -23.2412 -23.2381 -23.2312 -23.2288 -23.2254
   -22.0125 -21.9825 -21.9770 -21.9618  -6.9628  -6.7419  -6.3360  -6.1721
    -6.1136  -6.0208  -5.8589  -5.8152  -5.4711  -5.4216  -5.3936  -5.3491
    -4.2914  -4.2512  -4.1147  -4.0396  -4.0210  -3.9791  -3.9768  -3.9436
    -3.9373  -3.6670  -3.5734  -3.5652   5.2232   5.2367   5.2469   5.2987
     5.3901   5.4868   5.6538   6.2520   6.2892   6.2950   7.2198   7.2259
     7.3079   7.5189   7.6074   7.6841   7.6999   7.7516   7.7529   8.1917
     8.3055   8.6872   8.7052   8.8542   8.8689   8.9892   9.1130   9.2517
     9.3447   9.5518   9.6271   9.6493   9.9493  10.0033  10.0450  10.0746
    11.7397  11.8279  11.8387  11.9631  13.9883  14.0869  14.2255  14.2396
    14.7622  15.0167  15.0517  15.2178  15.6600  15.7196  15.7916  15.8414
    16.1352  16.1759  16.4971  17.1306  17.2631

          k = 0.0000 0.1500 0.0000 ( 18557 PWs)   bands (ev):

   -49.0200 -49.0187 -49.0177 -49.0164 -23.3242 -23.3151 -23.3104 -23.3092
   -23.2990 -23.2950 -23.2470 -23.2434 -23.2379 -23.2315 -23.2311 -23.2277
   -22.0106 -21.9822 -21.9774 -21.9628  -6.9255  -6.7414  -6.3868  -6.1606
    -6.1031  -6.0018  -5.8237  -5.8233  -5.5395  -5.4463  -5.4313  -5.3729
    -4.2603  -4.2478  -4.0720  -4.0315  -4.0275  -3.9835  -3.9686  -3.9153
    -3.9008  -3.6800  -3.5810  -3.5775   5.2595   5.2995   5.3034   5.3269
     5.4568   5.5683   5.7109   6.2210   6.3045   6.3333   7.0951   7.2367
     7.2611   7.3857   7.5323   7.5878   7.6732   7.7022   7.7395   8.3808
     8.4327   8.6793   8.7015   8.7067   8.8831   8.8911   9.0893   9.1095
     9.2587   9.4187   9.5293   9.5965   9.9400  10.0007  10.0018  10.0308
    11.8323  11.9339  11.9968  12.1297  14.0034  14.0523  14.1531  14.2487
    14.7632  14.9245  15.0636  15.1234  15.8019  15.8303  15.8565  15.9199
    16.2633  16.2636  16.4866  17.2111  17.3514

          k = 0.0000 0.2000 0.0000 ( 18509 PWs)   bands (ev):

   -49.0199 -49.0186 -49.0178 -49.0165 -23.3233 -23.3126 -23.3096 -23.3074
   -23.2959 -23.2919 -23.2509 -23.2465 -23.2376 -23.2342 -23.2319 -23.2308
   -22.0081 -21.9817 -21.9780 -21.9641  -6.8740  -6.7410  -6.4426  -6.1426
    -6.0889  -5.9756  -5.8345  -5.7896  -5.6273  -5.4782  -5.4758  -5.4051
    -4.2425  -4.2239  -4.0456  -4.0194  -4.0113  -3.9896  -3.9563  -3.8791
    -3.8570  -3.6974  -3.5946  -3.5908   5.2808   5.3007   5.4135   5.4369
     5.5424   5.6866   5.7968   6.1831   6.3262   6.3894   6.8922   7.2521
     7.2592   7.3102   7.4341   7.4611   7.6215   7.6235   7.7229   8.5049
     8.5149   8.5425   8.6900   8.7163   8.7532   8.8937   8.9563   9.1053
     9.1690   9.2649   9.4225   9.5297   9.9135   9.9343   9.9724   9.9933
    11.9543  12.0724  12.1908  12.3359  13.9941  14.0257  14.0533  14.2637
    14.7526  14.8007  14.9994  15.0426  15.8143  16.0390  16.0614  16.0687
    16.3865  16.4339  16.4694  17.3188  17.4640

          k = 0.0000 0.2500 0.0000 ( 18505 PWs)   bands (ev):

   -49.0198 -49.0184 -49.0179 -49.0166 -23.3221 -23.3101 -23.3095 -23.3036
   -23.2920 -23.2881 -23.2556 -23.2504 -23.2381 -23.2373 -23.2347 -23.2324
   -22.0051 -21.9810 -21.9788 -21.9657  -6.8091  -6.7403  -6.4983  -6.1170
    -6.0714  -5.9428  -5.8487  -5.7618  -5.7295  -5.5298  -5.5068  -5.4446
    -4.2353  -4.1865  -4.0626  -3.9972  -3.9915  -3.9617  -3.9389  -3.8381
    -3.8114  -3.7186  -3.6163  -3.6024   5.2967   5.3021   5.5513   5.5749
     5.6453   5.8392   5.9102   6.1433   6.3547   6.4661   6.7048   7.1242
     7.2854   7.3103   7.3189   7.3728   7.5123   7.5340   7.7021   8.2757
     8.5264   8.6092   8.6224   8.6262   8.7836   8.8089   9.0544   9.0944
     9.0981   9.1033   9.3305   9.4534   9.8472   9.8707   9.9022   9.9755
    12.1005  12.2357  12.4071  12.5677  13.9106  13.9284  14.0549  14.2863
    14.6508  14.7251  14.8503  14.9909  15.8431  16.1850  16.3422  16.3428
    16.4439  16.5450  16.6374  17.4490  17.5935

          k = 0.0000 0.3000 0.0000 ( 18523 PWs)   bands (ev):

   -49.0196 -49.0183 -49.0181 -49.0168 -23.3208 -23.3108 -23.3057 -23.2992
   -23.2875 -23.2836 -23.2610 -23.2549 -23.2427 -23.2392 -23.2369 -23.2328
   -22.0018 -21.9802 -21.9800 -21.9674  -6.7386  -6.7316  -6.5506  -6.0836
    -6.0511  -5.9038  -5.8657  -5.8417  -5.7455  -5.5799  -5.5369  -5.4901
    -4.2257  -4.1516  -4.0818  -4.0062  -3.9686  -3.9160  -3.9034  -3.7957
    -3.7688  -3.7430  -3.6423  -3.6158   5.3037   5.3067   5.7141   5.7386
     5.7653   6.0220   6.0447   6.1075   6.3904   6.5376   6.5671   7.0046
     7.1418   7.1892   7.3165   7.3671   7.3995   7.4531   7.6777   8.0279
     8.3902   8.4588   8.4976   8.6770   8.8116   8.9459   8.9600   9.0612
     9.0626   9.1757   9.2823   9.3716   9.7439   9.8138   9.8236   9.9464
    12.2658  12.4158  12.6360  12.8141  13.7815  13.8027  14.0875  14.3185
    14.4837  14.6796  14.6798  14.9177  15.8900  16.3520  16.4086  16.6480
    16.6622  16.7485  16.8628  17.5961  17.7331

          k = 0.0000 0.3500 0.0000 ( 18495 PWs)   bands (ev):

   -49.0194 -49.0183 -49.0181 -49.0169 -23.3193 -23.3116 -23.3013 -23.2943
   -23.2824 -23.2786 -23.2668 -23.2600 -23.2478 -23.2443 -23.2364 -23.2333
   -21.9983 -21.9815 -21.9792 -21.9693  -6.7347  -6.6426  -6.5974  -6.0425
    -6.0286  -5.9601  -5.8853  -5.8596  -5.7492  -5.6176  -5.5641  -5.5403
    -4.2138  -4.1211  -4.1024  -4.0166  -3.9432  -3.8873  -3.8481  -3.7697
    -3.7555  -3.7340  -3.6722  -3.6310   5.3056   5.3119   5.8986   5.9008
     5.9249   6.0813   6.1909   6.2305   6.3953   6.4336   6.6967   6.8946
     6.9620   7.0534   7.1909   7.2304   7.3452   7.5403   7.6507   7.7678
     8.1388   8.3072   8.4728   8.7183   8.8024   8.8578   9.0034   9.0686
     9.1053   9.2870   9.2878   9.3039   9.6298   9.7411   9.7446   9.9041
    12.4459  12.6058  12.8712  13.0656  13.6178  13.6727  14.0994  14.3281
    14.3617  14.4905  14.6189  14.8317  15.9517  16.3632  16.5348  16.9148
    17.0065  17.0506  17.0997  17.6650  17.7525

          k = 0.0000 0.4000 0.0000 ( 18530 PWs)   bands (ev):

   -49.0193 -49.0185 -49.0179 -49.0171 -23.3179 -23.3126 -23.2963 -23.2889
   -23.2769 -23.2732 -23.2729 -23.2656 -23.2534 -23.2498 -23.2359 -23.2338
   -21.9949 -21.9835 -21.9779 -21.9712  -6.7272  -6.6376  -6.5436  -6.0814
    -6.0046  -5.9949  -5.9069  -5.8109  -5.7807  -5.6323  -5.5937  -5.5873
    -4.1995  -4.1235  -4.0956  -4.0283  -3.9158  -3.8538  -3.7984  -3.7982
    -3.7208  -3.7113  -3.7055  -3.6478   5.3077   5.3137   6.0468   6.0704
     6.1004   6.1299   6.2839   6.3398   6.4603   6.4842   6.7765   6.7952
     6.8569   6.9136   6.9910   7.0280   7.3647   7.5008   7.6235   7.6423
     7.8949   8.1586   8.4637   8.6801   8.7552   8.9134   8.9408   9.1126
     9.2044   9.2396   9.3253   9.4222   9.5108   9.6634   9.6645   9.8476
    12.6364  12.7998  13.1084  13.2965  13.4608  13.5235  13.9956  14.2829
    14.2846  14.4169  14.5479  14.7400  16.0228  16.3078  16.7277  17.1620
    17.3383  17.3608  17.4164  17.4963  17.9044

          k = 0.0000 0.4500 0.0000 ( 18522 PWs)   bands (ev):

   -49.0191 -49.0186 -49.0177 -49.0173 -23.3164 -23.3137 -23.2909 -23.2832
   -23.2790 -23.2714 -23.2711 -23.2674 -23.2592 -23.2556 -23.2354 -23.2343
   -21.9916 -21.9858 -21.9765 -21.9731  -6.7147  -6.6705  -6.4361  -6.2029
    -5.9797  -5.9421  -5.9302  -5.8306  -5.7588  -5.6489  -5.6303  -5.6062
    -4.1829  -4.1444  -4.0745  -4.0416  -3.8871  -3.8276  -3.8171  -3.7562
    -3.7414  -3.7065  -3.6943  -3.6638   5.3099   5.3134   6.0792   6.1458
     6.2608   6.3136   6.3492   6.4864   6.5394   6.5910   6.7068   6.7077
     6.7722   6.7795   6.8064   7.0420   7.2318   7.3458   7.6018   7.6945
     7.7563   8.0159   8.4769   8.5840   8.7931   8.8841   8.9770   9.1238
     9.1868   9.3622   9.3823   9.3931   9.4874   9.5742   9.6305   9.7765
    12.8331  12.9927  13.2232  13.3442  13.3583  13.5939  13.7978  14.0642
    14.3287  14.4722  14.4840  14.6485  16.0981  16.2438  16.9253  17.3140
    17.4234  17.5690  17.7017  17.7983  17.9562

          k = 0.0000 0.5000 0.0000 ( 18550 PWs)   bands (ev):

   -49.0189 -49.0188 -49.0175 -49.0175 -23.3150 -23.3150 -23.2851 -23.2851
   -23.2773 -23.2773 -23.2652 -23.2652 -23.2615 -23.2615 -23.2349 -23.2349
   -21.9885 -21.9885 -21.9748 -21.9748  -6.6961  -6.6961  -6.3219  -6.3219
    -5.9547  -5.9547  -5.8863  -5.8863  -5.7043  -5.7043  -5.6206  -5.6206
    -4.1644  -4.1644  -4.0568  -4.0568  -3.8575  -3.8575  -3.7791  -3.7791
    -3.7237  -3.7237  -3.6769  -3.6769   5.3119   5.3119   6.1098   6.1098
     6.4114   6.4114   6.5191   6.5191   6.5771   6.5771   6.6301   6.6301
     6.6457   6.6457   6.9655   6.9655   7.2278   7.2278   7.6049   7.6049
     7.8812   7.8812   8.5162   8.5162   8.8353   8.8353   9.0475   9.0475
     9.2828   9.2828   9.4470   9.4470   9.4735   9.4735   9.6948   9.6948
    13.0313  13.0313  13.1801  13.1801  13.5757  13.5757  13.8319  13.8319
    14.3969  14.3969  14.5620  14.5620  16.1729  16.1729  17.1222  17.1222
    17.6980  17.6980  17.7809  17.7810  17.9639

          k = 0.0500 0.5000 0.0000 ( 18528 PWs)   bands (ev):

   -49.0189 -49.0188 -49.0175 -49.0175 -23.3150 -23.3150 -23.2874 -23.2874
   -23.2796 -23.2796 -23.2629 -23.2629 -23.2592 -23.2592 -23.2349 -23.2349
   -21.9884 -21.9884 -21.9749 -21.9749  -6.7070  -6.7070  -6.3215  -6.3215
    -5.9592  -5.9592  -5.8728  -5.8728  -5.7066  -5.7066  -5.6222  -5.6222
    -4.1581  -4.1581  -4.0550  -4.0550  -3.8655  -3.8655  -3.7773  -3.7773
    -3.7157  -3.7157  -3.6737  -3.6737   5.3113   5.3113   6.0775   6.0775
     6.2959   6.2959   6.4111   6.4111   6.5986   6.5986   6.6739   6.6739
     6.7618   6.7618   7.0131   7.0131   7.2646   7.2646   7.6166   7.6166
     7.8774   7.8774   8.5064   8.5064   8.8420   8.8421   9.0559   9.0559
     9.2695   9.2695   9.3870   9.3870   9.4697   9.4697   9.7261   9.7261
    12.9157  12.9157  13.2903  13.2903  13.5928  13.5928  13.8466  13.8466
    14.3856  14.3856  14.5763  14.5763  16.1626  16.1626  17.1312  17.1312
    17.6591  17.6591  17.8023  17.8023  17.8686

          k = 0.1000 0.5000 0.0000 ( 18512 PWs)   bands (ev):

   -49.0189 -49.0188 -49.0175 -49.0175 -23.3149 -23.3149 -23.2925 -23.2925
   -23.2844 -23.2844 -23.2581 -23.2581 -23.2544 -23.2544 -23.2349 -23.2349
   -21.9879 -21.9879 -21.9751 -21.9751  -6.7370  -6.7370  -6.3206  -6.3206
    -5.9679  -5.9679  -5.8418  -5.8418  -5.7130  -5.7130  -5.6243  -5.6243
    -4.1402  -4.1402  -4.0499  -4.0499  -3.8847  -3.8847  -3.7720  -3.7720
    -3.6988  -3.6988  -3.6622  -3.6622   5.3096   5.3096   5.9978   5.9978
     6.1236   6.1236   6.2119   6.2119   6.6876   6.6876   6.7411   6.7411
     6.8645   6.8645   7.1302   7.1302   7.3576   7.3576   7.6614   7.6614
     7.8664   7.8664   8.4768   8.4768   8.8637   8.8637   9.0797   9.0797
     9.2316   9.2316   9.2826   9.2826   9.4149   9.4149   9.7915   9.7915
    12.7471  12.7471  13.4422  13.4422  13.6411  13.6411  13.8891  13.8891
    14.3594  14.3594  14.6107  14.6107  16.1308  16.1308  17.1569  17.1569
    17.5994  17.5994  17.6874  17.6874  17.8217

          k = 0.1500 0.5000 0.0000 ( 18510 PWs)   bands (ev):

   -49.0189 -49.0188 -49.0175 -49.0175 -23.3148 -23.3148 -23.2984 -23.2984
   -23.2898 -23.2898 -23.2525 -23.2525 -23.2491 -23.2491 -23.2348 -23.2348
   -21.9872 -21.9872 -21.9754 -21.9754  -6.7796  -6.7796  -6.3192  -6.3192
    -5.9771  -5.9771  -5.8106  -5.8106  -5.7230  -5.7230  -5.6177  -5.6177
    -4.1136  -4.1136  -4.0426  -4.0426  -3.9079  -3.9079  -3.7634  -3.7634
    -3.6831  -3.6831  -3.6399  -3.6399   5.3064   5.3064   5.8951   5.8951
     5.9502   5.9502   6.0182   6.0182   6.7683   6.7683   6.8298   6.8298
     6.9283   6.9283   7.2700   7.2700   7.4483   7.4483   7.7665   7.7665
     7.8504   7.8504   8.4291   8.4291   8.9014   8.9014   9.1095   9.1095
     9.1603   9.1603   9.1805   9.1805   9.3247   9.3247   9.8599   9.8599
    12.5766  12.5766  13.5851  13.5851  13.7127  13.7127  13.9548  13.9548
    14.3290  14.3290  14.6529  14.6529  16.0768  16.0768  17.1950  17.1950
    17.4835  17.4835  17.5540  17.5540  17.8316

          k = 0.2000 0.5000 0.0000 ( 18506 PWs)   bands (ev):

   -49.0189 -49.0188 -49.0175 -49.0175 -23.3147 -23.3147 -23.3040 -23.3040
   -23.2949 -23.2949 -23.2472 -23.2472 -23.2439 -23.2439 -23.2348 -23.2348
   -21.9863 -21.9863 -21.9758 -21.9758  -6.8279  -6.8279  -6.3173  -6.3173
    -5.9864  -5.9864  -5.7961  -5.7961  -5.7353  -5.7353  -5.5911  -5.5911
    -4.0826  -4.0826  -4.0341  -4.0341  -3.9315  -3.9315  -3.7520  -3.7520
    -3.6686  -3.6686  -3.6110  -3.6110   5.3011   5.3011   5.7670   5.7670
     5.8070   5.8070   5.8400   5.8400   6.8551   6.8551   6.9254   6.9254
     6.9751   6.9751   7.4014   7.4014   7.5023   7.5023   7.8243   7.8243
     7.9375   7.9375   8.3670   8.3670   8.9492   8.9492   9.0224   9.0224
     9.0767   9.0767   9.1871   9.1871   9.2285   9.2285   9.9205   9.9205
    12.4119  12.4119  13.7127  13.7127  13.7965  13.7965  14.0360  14.0360
    14.2997  14.2997  14.6952  14.6952  16.0037  16.0037  17.2387  17.2387
    17.2746  17.2746  17.5338  17.5338  17.8405

          k = 0.2500 0.5000 0.0000 ( 18562 PWs)   bands (ev):

   -49.0189 -49.0188 -49.0175 -49.0175 -23.3150 -23.3150 -23.3088 -23.3088
   -23.2997 -23.2997 -23.2423 -23.2423 -23.2394 -23.2394 -23.2346 -23.2346
   -21.9854 -21.9854 -21.9762 -21.9762  -6.8762  -6.8762  -6.3153  -6.3153
    -5.9955  -5.9955  -5.8009  -5.8009  -5.7487  -5.7487  -5.5453  -5.5453
    -4.0516  -4.0516  -4.0257  -4.0257  -3.9534  -3.9534  -3.7385  -3.7385
    -3.6527  -3.6527  -3.5812  -3.5812   5.2925   5.2925   5.6217   5.6217
     5.6847   5.6847   5.7020   5.7020   6.9527   6.9527   7.0160   7.0160
     7.0207   7.0207   7.5099   7.5099   7.5359   7.5359   7.8003   7.8003
     8.1242   8.1242   8.2957   8.2957   8.8655   8.8655   8.9748   8.9748
     8.9954   8.9954   9.1775   9.1775   9.2405   9.2405   9.9703   9.9703
    12.2583  12.2583  13.8226  13.8226  13.8798  13.8798  14.1232  14.1232
    14.2752  14.2752  14.7321  14.7321  15.9200  15.9200  17.0729  17.0729
    17.2807  17.2807  17.5394  17.5394  17.8500

          k = 0.3000 0.5000 0.0000 ( 18510 PWs)   bands (ev):

   -49.0189 -49.0188 -49.0175 -49.0175 -23.3168 -23.3168 -23.3115 -23.3115
   -23.3038 -23.3038 -23.2381 -23.2381 -23.2362 -23.2362 -23.2336 -23.2336
   -21.9844 -21.9844 -21.9766 -21.9766  -6.9203  -6.9203  -6.3132  -6.3132
    -6.0040  -6.0040  -5.8156  -5.8156  -5.7618  -5.7618  -5.4925  -5.4925
    -4.0250  -4.0250  -4.0183  -4.0183  -3.9720  -3.9720  -3.7243  -3.7243
    -3.6349  -3.6349  -3.5540  -3.5540   5.2782   5.2782   5.4935   5.4935
     5.5593   5.5593   5.6120   5.6120   7.0515   7.0515   7.0543   7.0543
     7.1218   7.1218   7.5627   7.5627   7.5910   7.5910   7.7738   7.7738
     8.2196   8.2196   8.3039   8.3039   8.6950   8.6950   8.9096   8.9096
     8.9366   8.9366   9.2175   9.2175   9.2996   9.2996  10.0088  10.0088
    12.1210  12.1210  13.9138  13.9138  13.9506  13.9506  14.2069  14.2069
    14.2592  14.2592  14.7600  14.7600  15.8376  15.8376  16.8898  16.8898
    17.3173  17.3173  17.5634  17.5634  17.8587

          k = 0.3500 0.5000 0.0000 ( 18498 PWs)   bands (ev):

   -49.0189 -49.0188 -49.0175 -49.0175 -23.3198 -23.3198 -23.3121 -23.3121
   -23.3071 -23.3071 -23.2354 -23.2354 -23.2348 -23.2348 -23.2311 -23.2311
   -21.9835 -21.9835 -21.9770 -21.9770  -6.9571  -6.9571  -6.3114  -6.3114
    -6.0114  -6.0114  -5.8323  -5.8323  -5.7734  -5.7734  -5.4432  -5.4432
    -4.0124  -4.0124  -4.0087  -4.0087  -3.9826  -3.9826  -3.7108  -3.7108
    -3.6165  -3.6165  -3.5314  -3.5314   5.2549   5.2549   5.3897   5.3897
     5.4704   5.4704   5.5377   5.5377   7.0891   7.0891   7.1300   7.1300
     7.2455   7.2455   7.5875   7.5875   7.6462   7.6462   7.7469   7.7469
     8.1388   8.1388   8.4591   8.4591   8.5249   8.5249   8.8302   8.8302
     8.8793   8.8793   9.2965   9.2965   9.3557   9.3557  10.0365  10.0365
    12.0053  12.0053  13.9854  13.9854  13.9996  13.9996  14.2543  14.2543
    14.2790  14.2790  14.7772  14.7772  15.7675  15.7675  16.7356  16.7356
    17.3479  17.3479  17.5946  17.5946  17.8647

          k = 0.4000 0.5000 0.0000 ( 18490 PWs)   bands (ev):

   -49.0189 -49.0188 -49.0175 -49.0175 -23.3224 -23.3224 -23.3122 -23.3122
   -23.3095 -23.3095 -23.2352 -23.2352 -23.2323 -23.2323 -23.2288 -23.2288
   -21.9828 -21.9828 -21.9773 -21.9773  -6.9847  -6.9847  -6.3099  -6.3099
    -6.0171  -6.0171  -5.8465  -5.8465  -5.7825  -5.7825  -5.4038  -5.4038
    -4.0107  -4.0107  -4.0081  -4.0081  -3.9776  -3.9776  -3.6998  -3.6998
    -3.6002  -3.6002  -3.5146  -3.5146   5.2242   5.2242   5.3136   5.3136
     5.4191   5.4191   5.4822   5.4822   7.1178   7.1178   7.1840   7.1840
     7.3895   7.3895   7.6115   7.6115   7.6799   7.6799   7.7207   7.7207
     8.0448   8.0448   8.3799   8.3799   8.5781   8.5781   8.7662   8.7662
     8.8326   8.8326   9.3719   9.3719   9.4022   9.4022  10.0546  10.0546
    11.9170  11.9170  14.0254  14.0254  14.0367  14.0367  14.2589  14.2589
    14.3340  14.3340  14.7856  14.7856  15.7165  15.7165  16.6190  16.6190
    17.3720  17.3720  17.6230  17.6230  17.8675

          k = 0.4500 0.5000 0.0000 ( 18536 PWs)   bands (ev):

   -49.0189 -49.0188 -49.0175 -49.0175 -23.3240 -23.3240 -23.3121 -23.3121
   -23.3110 -23.3110 -23.2352 -23.2352 -23.2308 -23.2308 -23.2274 -23.2274
   -21.9824 -21.9824 -21.9774 -21.9774  -7.0017  -7.0017  -6.3089  -6.3089
    -6.0207  -6.0207  -5.8558  -5.8558  -5.7883  -5.7883  -5.3786  -5.3786
    -4.0167  -4.0167  -4.0056  -4.0056  -3.9703  -3.9703  -3.6925  -3.6925
    -3.5888  -3.5888  -3.5044  -3.5044   5.1977   5.1977   5.2671   5.2671
     5.3955   5.3955   5.4478   5.4478   7.1370   7.1370   7.2164   7.2164
     7.5384   7.5384   7.6338   7.6338   7.6969   7.6969   7.6973   7.6973
     7.9281   7.9281   8.2886   8.2886   8.6517   8.6517   8.7254   8.7254
     8.8034   8.8034   9.4245   9.4245   9.4331   9.4331  10.0645  10.0645
    11.8614  11.8614  14.0351  14.0351  14.0673  14.0673  14.2659  14.2659
    14.3682  14.3682  14.7885  14.7885  15.6867  15.6867  16.5465  16.5465
    17.3878  17.3878  17.6424  17.6424  17.8682

          k = 0.5000 0.5000 0.0000 ( 18544 PWs)   bands (ev):

   -49.0189 -49.0188 -49.0175 -49.0175 -23.3246 -23.3246 -23.3121 -23.3121
   -23.3115 -23.3115 -23.2352 -23.2352 -23.2303 -23.2303 -23.2269 -23.2269
   -21.9822 -21.9822 -21.9775 -21.9775  -7.0075  -7.0075  -6.3086  -6.3086
    -6.0219  -6.0219  -5.8591  -5.8591  -5.7903  -5.7903  -5.3700  -5.3700
    -4.0191  -4.0191  -4.0048  -4.0048  -3.9677  -3.9677  -3.6900  -3.6900
    -3.5847  -3.5847  -3.5010  -3.5010   5.1875   5.1875   5.2515   5.2515
     5.3889   5.3889   5.4361   5.4361   7.1437   7.1437   7.2272   7.2272
     7.6318   7.6318   7.6466   7.6466   7.6836   7.6836   7.7019   7.7019
     7.8445   7.8445   8.2594   8.2594   8.6746   8.6746   8.7134   8.7134
     8.7936   8.7936   9.4432   9.4432   9.4439   9.4439  10.0676  10.0676
    11.8424  11.8424  14.0373  14.0373  14.0775  14.0775  14.2689  14.2689
    14.3798  14.3798  14.7890  14.7890  15.6770  15.6770  16.5219  16.5219
    17.3933  17.3933  17.6492  17.6492  17.8682

          k = 0.4500 0.4500 0.0000 ( 18524 PWs)   bands (ev):

   -49.0189 -49.0188 -49.0175 -49.0175 -23.3243 -23.3226 -23.3124 -23.3119
   -23.3114 -23.3096 -23.2353 -23.2351 -23.2323 -23.2304 -23.2288 -23.2270
   -21.9830 -21.9821 -21.9776 -21.9771  -6.9988  -6.9921  -6.3291  -6.2882
    -6.0270  -6.0156  -5.8518  -5.8489  -5.7918  -5.7827  -5.3924  -5.3852
    -4.0205  -4.0063  -4.0062  -4.0045  -3.9740  -3.9687  -3.7009  -3.6905
    -3.5959  -3.5944  -3.5117  -3.5039   5.1879   5.2237   5.2510   5.3146
     5.3904   5.4178   5.4562   5.4641   7.1051   7.1573   7.1836   7.2191
     7.3924   7.6230   7.6232   7.6357   7.6696   7.6740   7.7316   7.7353
     7.8693   8.0274   8.2845   8.3384   8.5711   8.6811   8.7116   8.7660
     8.7872   8.8416   9.3670   9.3994   9.4456   9.4464  10.0537  10.0666
    11.8384  11.9216  14.0237  14.0406  14.0478  14.0586  14.2475  14.2780
    14.3443  14.3782  14.7884  14.7895  15.6786  15.7133  16.5189  16.6205
    17.3434  17.4234  17.5973  17.6797  17.8258

          k = 0.4000 0.4000 0.0000 ( 18494 PWs)   bands (ev):

   -49.0190 -49.0187 -49.0176 -49.0174 -23.3235 -23.3172 -23.3133 -23.3112
   -23.3109 -23.3040 -23.2380 -23.2363 -23.2349 -23.2336 -23.2306 -23.2271
   -21.9852 -21.9817 -21.9780 -21.9759  -6.9736  -6.9471  -6.3861  -6.2283
    -6.0406  -5.9974  -5.8333  -5.8188  -5.7992  -5.7604  -5.4542  -5.4278
    -4.0249  -4.0110  -4.0036  -3.9921  -3.9756  -3.9663  -3.7326  -3.6901
    -3.6287  -3.6217  -3.5433  -3.5131   5.1890   5.2497   5.2751   5.3947
     5.4974   5.5151   5.5473   5.5557   6.9971   7.0041   7.0716   7.1964
     7.2964   7.5596   7.6029   7.6047   7.6176   7.6452   7.8170   7.8240
     7.9434   8.1517   8.2815   8.3489   8.5222   8.6966   8.7119   8.8160
     8.9091   8.9723   9.1870   9.2861   9.4520   9.4559  10.0060  10.0636
    11.8269  12.1375  13.9296  13.9338  13.9737  14.0497  14.2365  14.2718
    14.3015  14.3967  14.7608  14.7920  15.6837  15.8314  16.5076  16.8856
    17.2031  17.4547  17.5061  17.6931  17.7739

          k = 0.3500 0.3500 0.0000 ( 18530 PWs)   bands (ev):

   -49.0191 -49.0186 -49.0178 -49.0172 -23.3223 -23.3146 -23.3129 -23.3108
   -23.3052 -23.2954 -23.2468 -23.2436 -23.2354 -23.2345 -23.2309 -23.2274
   -21.9886 -21.9811 -21.9786 -21.9741  -6.9345  -6.8762  -6.4696  -6.1333
    -6.0594  -5.9694  -5.8175  -5.8150  -5.7709  -5.7240  -5.5367  -5.4904
    -4.0355  -4.0197  -4.0167  -4.0020  -3.9780  -3.9164  -3.7820  -3.6849
    -3.6807  -3.6629  -3.5934  -3.5287   5.1907   5.2476   5.2941   5.4010
     5.6057   5.6843   5.7847   5.8331   6.6687   6.8708   6.9269   7.2559
     7.3314   7.3455   7.5584   7.5788   7.5977   7.6260   7.8810   7.9357
     7.9507   8.0659   8.2378   8.4383   8.5327   8.6963   8.7449   8.9689
     9.0648   9.1050   9.1449   9.1538   9.4647   9.4716   9.9154  10.0584
    11.8095  12.4443  13.7086  13.7158  13.7735  14.0626  14.2268  14.2893
    14.3385  14.4594  14.6751  14.8074  15.6922  16.0104  16.4816  16.9969
    17.2105  17.2474  17.4701  17.6243  17.9363

          k = 0.3000 0.3000 0.0000 ( 18515 PWs)   bands (ev):

   -49.0193 -49.0184 -49.0180 -49.0171 -23.3211 -23.3160 -23.3117 -23.3104
   -23.2937 -23.2845 -23.2578 -23.2543 -23.2360 -23.2341 -23.2312 -23.2276
   -21.9930 -21.9803 -21.9793 -21.9718  -6.8860  -6.7849  -6.5687  -6.0811
    -6.0104  -5.9353  -5.8483  -5.8272  -5.7080  -5.6750  -5.5972  -5.5636
    -4.0637  -4.0350  -4.0333  -3.9994  -3.9836  -3.8561  -3.8425  -3.7478
    -3.7141  -3.6717  -3.6582  -3.5484   5.1928   5.2451   5.2995   5.4079
     5.7213   5.8724   6.1463   6.2039   6.3605   6.7297   6.7780   7.0107
     7.3111   7.3240   7.3913   7.5078   7.5343   7.6467   7.6714   8.0872
     8.1091   8.2364   8.3270   8.4392   8.5457   8.6970   8.8035   8.8653
     9.0101   9.3216   9.3234   9.3536   9.4840   9.4935   9.7749  10.0509
    11.7882  12.7985  13.3997  13.4140  13.4780  14.0735  14.2111  14.3838
    14.3913  14.5622  14.5629  14.8360  15.7038  16.1874  16.4301  16.7542
    17.0002  17.1786  17.4059  17.7621  18.1572

          k = 0.2500 0.2500 0.0000 ( 18537 PWs)   bands (ev):

   -49.0195 -49.0182 -49.0181 -49.0169 -23.3206 -23.3168 -23.3109 -23.3101
   -23.2804 -23.2726 -23.2699 -23.2662 -23.2366 -23.2336 -23.2315 -23.2278
   -21.9979 -21.9801 -21.9795 -21.9693  -6.8346  -6.6804  -6.6735  -6.1040
    -5.9003  -5.8976  -5.8888  -5.8699  -5.6422  -5.6316  -5.6157  -5.5934
    -4.1023  -4.0637  -4.0461  -3.9955  -3.9891  -3.9020  -3.8241  -3.7972
    -3.7698  -3.7321  -3.6507  -3.5682   5.1951   5.2420   5.3006   5.4127
     5.8506   6.0865   6.1076   6.5248   6.5960   6.6053   6.6190   6.6620
     6.8292   7.3625   7.4573   7.4599   7.4889   7.6749   7.6750   8.2669
     8.2955   8.3309   8.4235   8.4550   8.6660   8.7131   8.7962   8.8866
     8.9047   9.5064   9.5193   9.5382   9.5481   9.5722   9.5832  10.0409
    11.7656  13.0417  13.0600  13.1300  13.1643  14.0734  14.2068  14.3876
    14.4983  14.5462  14.6951  14.8780  15.7175  16.3214  16.3381  16.5018
    16.7321  16.8603  17.4133  17.6753  17.9089

          k = 0.2000 0.2000 0.0000 ( 18531 PWs)   bands (ev):

   -49.0197 -49.0184 -49.0180 -49.0167 -23.3216 -23.3163 -23.3102 -23.3100
   -23.2817 -23.2778 -23.2671 -23.2608 -23.2371 -23.2330 -23.2315 -23.2278
   -22.0029 -21.9809 -21.9786 -21.9667  -6.7889  -6.7747  -6.5710  -6.1267
    -5.9870  -5.9329  -5.8712  -5.7252  -5.7095  -5.5566  -5.5507  -5.5488
    -4.1426  -4.1150  -4.0626  -3.9938  -3.9904  -3.9445  -3.9009  -3.8322
    -3.8080  -3.7402  -3.6248  -3.5828   5.1973   5.2382   5.3003   5.4107
     5.8540   5.9810   6.1863   6.3627   6.3882   6.4856   6.5020   6.9613
     7.0212   7.3305   7.3837   7.5254   7.5388   7.6978   7.7056   8.2333
     8.4664   8.5016   8.5116   8.7144   8.7399   8.7582   8.7988   8.8618
     8.9964   9.3370   9.5395   9.5530   9.7144   9.7294   9.7792  10.0287
    11.7440  12.6664  12.6853  12.7637  13.5098  14.0567  14.2066  14.3133
    14.6107  14.6657  14.8473  14.9355  15.7320  16.1905  16.2604  16.4080
    16.4442  16.5744  17.1282  17.3406  17.8785

          k = 0.1500 0.1500 0.0000 ( 18527 PWs)   bands (ev):

   -49.0199 -49.0185 -49.0178 -49.0165 -23.3231 -23.3158 -23.3105 -23.3096
   -23.2918 -23.2877 -23.2555 -23.2508 -23.2376 -23.2323 -23.2311 -23.2274
   -22.0074 -21.9817 -21.9779 -21.9644  -6.8638  -6.7574  -6.4653  -6.1482
    -6.0581  -5.9743  -5.8563  -5.7656  -5.5929  -5.4975  -5.4818  -5.4780
    -4.1840  -4.1813  -4.0866  -3.9978  -3.9849  -3.9667  -3.9666  -3.8881
    -3.8768  -3.6989  -3.5984  -3.5872   5.1992   5.2318   5.2995   5.3905
     5.6679   5.8151   5.9844   6.1000   6.3897   6.4070   6.7016   7.2801
     7.2953   7.3052   7.3651   7.5885   7.6025   7.7223   7.7346   8.1462
     8.5753   8.6708   8.7125   8.7232   8.7309   8.8941   8.9605   9.0458
     9.0695   9.1271   9.5776   9.5912   9.8428   9.8873   9.9312  10.0148
    11.7253  12.3051  12.3217  12.4105  13.8035  14.0278  14.2093  14.2658
    14.6961  14.8149  15.0053  15.0055  15.7438  15.9865  16.0455  16.1490
    16.3583  16.4590  16.6465  17.2520  17.5936

          k = 0.1000 0.1000 0.0000 ( 18547 PWs)   bands (ev):

   -49.0200 -49.0187 -49.0177 -49.0163 -23.3244 -23.3162 -23.3118 -23.3091
   -23.2988 -23.2946 -23.2472 -23.2438 -23.2380 -23.2316 -23.2298 -23.2262
   -22.0110 -21.9823 -21.9773 -21.9626  -6.9334  -6.7434  -6.3736  -6.1661
    -6.0995  -6.0075  -5.8656  -5.7963  -5.4914  -5.4478  -5.4185  -5.4079
    -4.2521  -4.2164  -4.1175  -4.0123  -4.0023  -3.9800  -3.9771  -3.9340
    -3.9290  -3.6731  -3.5810  -3.5757   5.2002   5.2178   5.2987   5.3292
     5.5198   5.5431   5.7375   6.1953   6.3210   6.3361   7.0441   7.2380
     7.2507   7.5581   7.5649   7.6399   7.6556   7.7430   7.7583   8.0724
     8.5123   8.6968   8.7128   8.8533   8.8793   8.9027   9.0013   9.1519
     9.2629   9.3548   9.6234   9.6355   9.9220   9.9988  10.0018  10.0337
    11.7096  11.9937  12.0072  12.1057  14.0001  14.0086  14.2225  14.2439
    14.7433  14.9555  15.0530  15.1509  15.7345  15.7619  15.8705  15.9145
    16.2072  16.2963  16.4869  17.1700  17.3643

          k = 0.0500 0.0500 0.0000 ( 18577 PWs)   bands (ev):

   -49.0201 -49.0188 -49.0176 -49.0163 -23.3253 -23.3175 -23.3135 -23.3088
   -23.3022 -23.2981 -23.2429 -23.2403 -23.2382 -23.2311 -23.2279 -23.2244
   -22.0133 -21.9826 -21.9769 -21.9614  -6.9777  -6.7415  -6.3084  -6.1769
    -6.1175  -6.0289  -5.8880  -5.8061  -5.4316  -5.4122  -5.3758  -5.3514
    -4.3019  -4.2432  -4.1430  -4.0398  -4.0084  -3.9817  -3.9767  -3.9620
    -3.9588  -3.6602  -3.5713  -3.5605   5.1845   5.1975   5.2400   5.2982
     5.3703   5.4529   5.6354   6.2569   6.2793   6.2928   7.2087   7.2168
     7.4007   7.6495   7.6735   7.6966   7.7211   7.7566   7.7755   7.9946
     8.2614   8.6809   8.7274   8.8344   8.9747   9.0369   9.0825   9.3319
     9.3752   9.6001   9.6715   9.6841   9.9438   9.9987  10.0591  10.0920
    11.6902  11.7756  11.7950  11.8920  13.9826  14.0940  14.2355  14.2606
    14.7569  15.0363  15.0561  15.2577  15.5868  15.6626  15.7755  15.8309
    16.0880  16.1351  16.5004  17.0988  17.2263

          k = 0.0000 0.0000 0.0000 ( 18577 PWs)   bands (ev):

   -49.0202 -49.0188 -49.0175 -49.0162 -23.3256 -23.3182 -23.3143 -23.3087
   -23.3031 -23.2991 -23.2417 -23.2394 -23.2383 -23.2309 -23.2269 -23.2236
   -22.0141 -21.9828 -21.9767 -21.9610  -6.9929  -6.7424  -6.2840  -6.1803
    -6.1222  -6.0363  -5.8984  -5.8086  -5.4121  -5.3993  -5.3606  -5.3295
    -4.3203  -4.2537  -4.1523  -4.0495  -4.0123  -3.9829  -3.9755  -3.9703
    -3.9679  -3.6563  -3.5670  -3.5552   5.1581   5.1821   5.2121   5.2980
     5.3314   5.4252   5.6124   6.2653   6.2771   6.2794   7.1976   7.2059
     7.6706   7.6809   7.6894   7.7150   7.7614   7.7649   7.7898   7.8345
     8.1330   8.6757   8.7343   8.8304   9.0139   9.0850   9.1168   9.3972
     9.4282   9.6847   9.6952   9.7220   9.9393   9.9990  10.0759  10.1109
    11.6616  11.6958  11.7387  11.8137  13.9769  14.1075  14.2334  14.2840
    14.7547  15.0110  15.0926  15.2979  15.5220  15.6323  15.7387  15.8275
    16.0300  16.1061  16.5044  17.0639  17.1617

          k = 0.0000 0.0000 0.0354 ( 18581 PWs)   bands (ev):

   -49.0201 -49.0188 -49.0175 -49.0162 -23.3251 -23.3182 -23.3144 -23.3082
   -23.3031 -23.2991 -23.2417 -23.2395 -23.2388 -23.2313 -23.2269 -23.2236
   -22.0139 -21.9829 -21.9766 -21.9611  -6.9909  -6.7424  -6.2791  -6.1787
    -6.1218  -6.0373  -5.8975  -5.8059  -5.4152  -5.4053  -5.3656  -5.3337
    -4.3183  -4.2486  -4.1477  -4.0493  -4.0125  -3.9799  -3.9778  -3.9703
    -3.9681  -3.6593  -3.5700  -3.5575   5.1583   5.1819   5.2208   5.3133
     5.3319   5.4302   5.6199   6.2601   6.2807   6.2830   7.1863   7.1953
     7.6499   7.6765   7.7077   7.7348   7.7482   7.7639   7.7885   7.8408
     8.1403   8.6503   8.7475   8.8417   9.0038   9.0779   9.1045   9.3973
     9.4291   9.6682   9.6780   9.7151   9.9381   9.9950  10.0793  10.1112
    11.6831  11.6965  11.7590  11.8129  13.9680  14.1115  14.2192  14.2882
    14.7683  15.0036  15.0936  15.2966  15.5221  15.6286  15.7501  15.8334
    16.0387  16.1152  16.5274  17.0805  17.1657

          k = 0.0000 0.0000 0.0707 ( 18581 PWs)   bands (ev):

   -49.0201 -49.0188 -49.0175 -49.0162 -23.3236 -23.3181 -23.3144 -23.3068
   -23.3030 -23.2992 -23.2417 -23.2405 -23.2397 -23.2326 -23.2268 -23.2236
   -22.0134 -21.9835 -21.9763 -21.9614  -6.9850  -6.7425  -6.2644  -6.1738
    -6.1207  -6.0402  -5.8949  -5.7980  -5.4243  -5.4232  -5.3804  -5.3459
    -4.3123  -4.2338  -4.1340  -4.0486  -4.0132  -3.9845  -3.9711  -3.9706
    -3.9688  -3.6682  -3.5792  -3.5644   5.1587   5.1815   5.2446   5.3333
     5.3588   5.4454   5.6444   6.2446   6.2913   6.2936   7.1539   7.1647
     7.6302   7.6616   7.7088   7.7456   7.7608   7.7703   7.7848   7.8597
     8.1611   8.5756   8.7857   8.8746   8.9739   9.0571   9.0684   9.3977
     9.4319   9.5929   9.6598   9.6969   9.9313   9.9826  10.0877  10.1120
    11.6983  11.7456  11.8104  11.8184  13.9405  14.1234  14.1769  14.3005
    14.8040  14.9816  15.0966  15.2928  15.5223  15.6187  15.7836  15.8521
    16.0682  16.1425  16.5950  17.1291  17.1775

          k = 0.0000 0.0000 0.1061 ( 18573 PWs)   bands (ev):

   -49.0201 -49.0189 -49.0175 -49.0163 -23.3212 -23.3177 -23.3146 -23.3046
   -23.3029 -23.2993 -23.2431 -23.2416 -23.2403 -23.2345 -23.2267 -23.2238
   -22.0124 -21.9844 -21.9759 -21.9618  -6.9753  -6.7436  -6.2403  -6.1648
    -6.1190  -6.0446  -5.8910  -5.7851  -5.4525  -5.4386  -5.4039  -5.3653
    -4.3025  -4.2101  -4.1120  -4.0475  -4.0144  -3.9955  -3.9710  -3.9698
    -3.9566  -3.6828  -3.5942  -3.5759   5.1595   5.1808   5.2766   5.3356
     5.4335   5.4703   5.6920   6.2191   6.3090   6.3112   7.1045   7.1177
     7.6147   7.6432   7.6516   7.7558   7.7788   7.7906   7.8141   7.8910
     8.1931   8.4560   8.8453   8.9251   8.9270   9.0104   9.0236   9.3992
     9.4364   9.4806   9.6340   9.6725   9.9146   9.9616  10.0980  10.1132
    11.7014  11.8063  11.8438  11.9127  13.8929  14.1078  14.1433  14.3209
    14.8475  14.9457  15.1016  15.2866  15.5227  15.6049  15.8385  15.8872
    16.1266  16.1875  16.7031  17.1968  17.2064

          k = 0.0000 0.0000 0.1414 ( 18565 PWs)   bands (ev):

   -49.0200 -49.0189 -49.0174 -49.0163 -23.3189 -23.3164 -23.3147 -23.3027
   -23.3015 -23.2995 -23.2468 -23.2416 -23.2414 -23.2365 -23.2266 -23.2239
   -22.0111 -21.9857 -21.9752 -21.9625  -6.9620  -6.7466  -6.2071  -6.1507
    -6.1165  -6.0501  -5.8867  -5.7679  -5.4921  -5.4572  -5.4344  -5.3907
    -4.2890  -4.1790  -4.0828  -4.0460  -4.0159  -4.0103  -3.9716  -3.9709
    -3.9372  -3.7030  -3.6147  -3.5917   5.1604   5.1798   5.3081   5.3385
     5.5044   5.5357   5.7698   6.1844   6.3336   6.3356   7.0430   7.0585
     7.5521   7.6016   7.6467   7.7490   7.7705   7.8430   7.8659   7.9347
     8.2338   8.2991   8.8595   8.9215   8.9343   8.9790   8.9958   9.3428
     9.4025   9.4427   9.6051   9.6463   9.8863   9.9312  10.1077  10.1150
    11.7055  11.8007  11.9709  12.0362  13.8237  14.0138  14.1710  14.3493
    14.8809  14.8972  15.1086  15.2780  15.5234  15.5901  15.9148  15.9433
    16.2215  16.2498  16.8439  17.2231  17.3084

          k = 0.0000 0.0000 0.1768 ( 18561 PWs)   bands (ev):

   -49.0200 -49.0190 -49.0174 -49.0164 -23.3181 -23.3149 -23.3126 -23.3025
   -23.2997 -23.2976 -23.2513 -23.2444 -23.2412 -23.2378 -23.2264 -23.2241
   -22.0094 -21.9872 -21.9744 -21.9633  -6.9456  -6.7525  -6.1654  -6.1307
    -6.1135  -6.0564  -5.8832  -5.7467  -5.5408  -5.4787  -5.4692  -5.4207
    -4.2722  -4.1418  -4.0476  -4.0441  -4.0287  -4.0178  -3.9723  -3.9722
    -3.9133  -3.7285  -3.6405  -3.6117   5.1617   5.1786   5.3324   5.3420
     5.5469   5.6628   5.8824   6.1414   6.3650   6.3666   6.9739   6.9917
     7.4363   7.5872   7.6465   7.7408   7.7603   7.9026   7.9256   7.9905
     8.1159   8.2814   8.7801   8.8446   8.9253   9.0094   9.0770   9.1897
     9.4078   9.4508   9.5763   9.6208   9.8463   9.8909  10.1156  10.1170
    11.7108  11.7939  12.1200  12.1827  13.7322  13.8972  14.2063  14.3854
    14.8384  14.8909  15.1177  15.2671  15.5243  15.5763  16.0118  16.0227
    16.3281  16.3574  17.0043  17.2553  17.2745

          k = 0.0000 0.0000 0.2121 ( 18541 PWs)   bands (ev):

   -49.0199 -49.0191 -49.0173 -49.0165 -23.3177 -23.3152 -23.3076 -23.3023
   -23.2999 -23.2930 -23.2566 -23.2485 -23.2410 -23.2385 -23.2262 -23.2242
   -22.0075 -21.9891 -21.9735 -21.9642  -6.9264  -6.7621  -6.1162  -6.1097
    -6.1044  -6.0631  -5.8825  -5.7221  -5.5972  -5.5047  -5.5017  -5.4539
    -4.2524  -4.1003  -4.0501  -4.0419  -4.0200  -4.0079  -3.9733  -3.9731
    -3.8858  -3.7588  -3.6710  -3.6353   5.1631   5.1772   5.3459   5.3483
     5.5967   5.8117   6.0276   6.0921   6.4032   6.4038   6.9010   6.9208
     7.2977   7.5594   7.6503   7.7314   7.7485   7.9257   7.9697   7.9932
     8.0585   8.3347   8.6908   8.7460   8.8645   9.0308   9.1048   9.1668
     9.4152   9.4607   9.5493   9.5968   9.7952   9.8406  10.1192  10.1213
    11.7169  11.7860  12.2848  12.3464  13.6193  13.7608  14.2490  14.4288
    14.7720  14.8743  15.1289  15.2543  15.5255  15.5644  16.1098  16.1414
    16.4212  16.5332  17.1462  17.1653  17.2921

          k = 0.0000 0.0000 0.2475 ( 18554 PWs)   bands (ev):

   -49.0198 -49.0192 -49.0172 -49.0166 -23.3174 -23.3155 -23.3020 -23.3019
   -23.3002 -23.2879 -23.2625 -23.2534 -23.2408 -23.2390 -23.2260 -23.2245
   -22.0054 -21.9911 -21.9724 -21.9653  -6.9050  -6.7755  -6.1054  -6.0721
    -6.0699  -6.0602  -5.8876  -5.6944  -5.6596  -5.5366  -5.5245  -5.4891
    -4.2301  -4.0738  -4.0559  -4.0394  -4.0225  -3.9742  -3.9738  -3.9650
    -3.8554  -3.7935  -3.7058  -3.6622   5.1647   5.1756   5.3499   5.3572
     5.6526   5.9784   6.0335   6.2054   6.4462   6.4478   6.8270   6.8493
     7.1395   7.4790   7.6574   7.7213   7.7353   7.7753   8.0437   8.0683
     8.1387   8.3929   8.5953   8.6427   8.7987   8.8733   9.2039   9.2617
     9.4247   9.4722   9.5248   9.5745   9.7336   9.7802  10.1215  10.1250
    11.7240  11.7774  12.4599  12.5224  13.4869  13.6077  14.2987  14.4789
    14.7009  14.8360  15.1421  15.2399  15.5271  15.5546  16.2158  16.2851
    16.5270  16.7430  17.0102  17.2854  17.3016

          k = 0.0000 0.0000 0.2828 ( 18514 PWs)   bands (ev):

   -49.0197 -49.0192 -49.0171 -49.0166 -23.3171 -23.3157 -23.3017 -23.3005
   -23.2957 -23.2824 -23.2688 -23.2589 -23.2406 -23.2393 -23.2258 -23.2247
   -22.0031 -21.9934 -21.9713 -21.9664  -6.8821  -6.7927  -6.1006  -6.0766
    -6.0352  -5.9988  -5.9013  -5.7262  -5.6641  -5.5601  -5.5452  -5.5253
    -4.2057  -4.0993  -4.0367  -4.0252  -4.0099  -3.9748  -3.9745  -3.9202
    -3.8320  -3.8232  -3.7443  -3.6917   5.1665   5.1739   5.3539   5.3612
     5.7133   5.9727   6.1579   6.4044   6.4918   6.4986   6.7541   6.7803
     6.9673   7.3058   7.6674   7.7112   7.7114   7.7213   8.1244   8.1507
     8.2310   8.4553   8.4971   8.5381   8.7226   8.7299   9.3036   9.3583
     9.4362   9.4854   9.5027   9.5537   9.6623   9.7102  10.1237  10.1269
    11.7319  11.7683  12.6406  12.7061  13.3376  13.4411  14.3550  14.5349
    14.6277  14.7833  15.1571  15.2240  15.5293  15.5468  16.3325  16.4446
    16.6435  16.8703  16.9776  17.1493  17.1596

          k = 0.0000 0.0000 0.3182 ( 18522 PWs)   bands (ev):

   -49.0197 -49.0193 -49.0171 -49.0167 -23.3168 -23.3161 -23.3015 -23.3008
   -23.2891 -23.2766 -23.2755 -23.2647 -23.2403 -23.2397 -23.2255 -23.2249
   -22.0007 -21.9957 -21.9701 -21.9676  -6.8585  -6.8128  -6.0952  -6.0831
    -5.9960  -5.9331  -5.9252  -5.7952  -5.6315  -5.5719  -5.5619  -5.5615
    -4.1798  -4.1259  -4.0339  -4.0281  -3.9752  -3.9749  -3.9635  -3.8747
    -3.8736  -3.7898  -3.7858  -3.7233   5.1683   5.1720   5.3575   5.3618
     5.7772   5.9086   6.3415   6.5312   6.5552   6.6217   6.6837   6.7193
     6.7950   7.0838   7.6794   7.6957   7.7023   7.7070   8.2112   8.2398
     8.3356   8.3990   8.4348   8.5212   8.5818   8.6597   9.4013   9.4498
     9.4537   9.4829   9.5003   9.5344   9.5823   9.6315  10.1256  10.1275
    11.7405  11.7589  12.8225  12.8934  13.1748  13.2643  14.4170  14.5548
    14.5954  14.7227  15.1733  15.2073  15.5322  15.5406  16.4584  16.6154
    16.7297  16.7680  16.9729  17.0292  17.2284

          k = 0.0000 0.0000 0.3536 ( 18458 PWs)   bands (ev):

   -49.0196 -49.0193 -49.0170 -49.0167 -23.3165 -23.3163 -23.3012 -23.3010
   -23.2824 -23.2822 -23.2707 -23.2705 -23.2401 -23.2398 -23.2254 -23.2251
   -21.9982 -21.9982 -21.9689 -21.9689  -6.8352  -6.8350  -6.0894  -6.0893
    -5.9580  -5.9580  -5.8647  -5.8647  -5.5972  -5.5971  -5.5718  -5.5716
    -4.1530  -4.1530  -4.0310  -4.0310  -3.9752  -3.9752  -3.9178  -3.9177
    -3.8296  -3.8296  -3.7563  -3.7563   5.1701   5.1703   5.3603   5.3605
     5.8428   5.8430   6.4996   6.4996   6.6171   6.6172   6.6921   6.6921
     6.8509   6.8509   7.6927   7.6928   7.6959   7.6960   8.3031   8.3031
     8.3349   8.3349   8.4525   8.4527   8.5896   8.5898   9.4652   9.4654
     9.4948   9.4948   9.5165   9.5167   9.5455   9.5455  10.1268  10.1270
    11.7494  11.7497  13.0018  13.0019  13.0806  13.0807  14.4840  14.4842
    14.6588  14.6590  15.1901  15.1903  15.5357  15.5360  16.5915  16.5916
    16.7930  16.7932  16.8976  16.8976  17.4292

          k = 0.0000 0.0500 0.3536 ( 18504 PWs)   bands (ev):

   -49.0196 -49.0193 -49.0170 -49.0168 -23.3161 -23.3159 -23.3008 -23.3005
   -23.2823 -23.2821 -23.2708 -23.2705 -23.2407 -23.2404 -23.2258 -23.2256
   -21.9980 -21.9980 -21.9690 -21.9690  -6.8299  -6.8297  -6.0866  -6.0864
    -5.9697  -5.9697  -5.8659  -5.8659  -5.5997  -5.5996  -5.5714  -5.5713
    -4.1541  -4.1541  -4.0328  -4.0328  -3.9704  -3.9704  -3.9174  -3.9174
    -3.8236  -3.8236  -3.7557  -3.7557   5.1864   5.1866   5.3763   5.3766
     5.8508   5.8510   6.4984   6.4985   6.6213   6.6214   6.6856   6.6857
     6.8579   6.8579   7.6635   7.6637   7.6832   7.6833   8.2311   8.2311
     8.2692   8.2692   8.5219   8.5220   8.6583   8.6584   9.4073   9.4075
     9.4794   9.4795   9.5145   9.5146   9.5615   9.5615  10.1164  10.1166
    11.7878  11.7880  13.0071  13.0072  13.0848  13.0849  14.4824  14.4827
    14.6461  14.6464  15.1699  15.1702  15.5681  15.5684  16.6143  16.6143
    16.8069  16.8071  16.9122  16.9122  17.4267

          k = 0.0000 0.1000 0.3536 ( 18522 PWs)   bands (ev):

   -49.0196 -49.0193 -49.0171 -49.0168 -23.3150 -23.3147 -23.2994 -23.2991
   -23.2821 -23.2818 -23.2709 -23.2707 -23.2422 -23.2420 -23.2272 -23.2270
   -21.9973 -21.9973 -21.9694 -21.9694  -6.8141  -6.8140  -6.0782  -6.0780
    -6.0010  -6.0010  -5.8709  -5.8709  -5.6071  -5.6069  -5.5721  -5.5720
    -4.1564  -4.1564  -4.0380  -4.0380  -3.9573  -3.9573  -3.9166  -3.9165
    -3.8070  -3.8070  -3.7534  -3.7534   5.2350   5.2352   5.4237   5.4239
     5.8751   5.8752   6.4953   6.4954   6.6339   6.6340   6.6696   6.6697
     6.8754   6.8754   7.5743   7.5744   7.6530   7.6531   8.1161   8.1161
     8.1504   8.1504   8.6187   8.6188   8.7849   8.7850   9.3017   9.3019
     9.4086   9.4088   9.5184   9.5185   9.5739   9.5739  10.0858  10.0860
    11.8960  11.8963  13.0235  13.0237  13.0980  13.0982  14.4729  14.4732
    14.6086  14.6088  15.1107  15.1110  15.6671  15.6673  16.6804  16.6804
    16.8479  16.8481  16.9556  16.9556  17.4304

          k = 0.0000 0.1500 0.3536 ( 18518 PWs)   bands (ev):

   -49.0195 -49.0192 -49.0172 -49.0169 -23.3130 -23.3127 -23.2971 -23.2969
   -23.2816 -23.2813 -23.2712 -23.2709 -23.2448 -23.2445 -23.2295 -23.2293
   -21.9962 -21.9962 -21.9701 -21.9701  -6.7885  -6.7883  -6.0644  -6.0642
    -6.0451  -6.0450  -5.8803  -5.8803  -5.6192  -5.6191  -5.5777  -5.5776
    -4.1572  -4.1572  -4.0458  -4.0458  -3.9387  -3.9387  -3.9154  -3.9153
    -3.7828  -3.7828  -3.7481  -3.7481   5.3150   5.3152   5.4994   5.4996
     5.9165   5.9167   6.4911   6.4911   6.6499   6.6500   6.6549   6.6551
     6.8974   6.8974   7.4467   7.4467   7.5988   7.5989   7.9938   7.9938
     8.0257   8.0257   8.6735   8.6735   8.9183   8.9184   9.1870   9.1872
     9.3218   9.3220   9.5073   9.5074   9.5790   9.5791  10.0370  10.0372
    12.0586  12.0588  13.0528  13.0530  13.1223  13.1224  14.4455  14.4457
    14.5471  14.5473  15.0157  15.0159  15.8341  15.8343  16.7834  16.7835
    16.9138  16.9140  17.0265  17.0265  17.4434

          k = 0.0000 0.2000 0.3536 ( 18550 PWs)   bands (ev):

   -49.0194 -49.0191 -49.0173 -49.0170 -23.3103 -23.3100 -23.2941 -23.2938
   -23.2810 -23.2807 -23.2715 -23.2713 -23.2483 -23.2480 -23.2327 -23.2324
   -21.9947 -21.9947 -21.9711 -21.9710  -6.7537  -6.7535  -6.0963  -6.0963
    -6.0458  -6.0456  -5.8927  -5.8927  -5.6358  -5.6357  -5.5917  -5.5916
    -4.1545  -4.1545  -4.0554  -4.0554  -3.9196  -3.9196  -3.9142  -3.9141
    -3.7552  -3.7552  -3.7375  -3.7375   5.4250   5.4252   5.5980   5.5982
     5.9767   5.9769   6.4866   6.4866   6.6310   6.6310   6.6845   6.6847
     6.9188   6.9188   7.3017   7.3018   7.5191   7.5192   7.8651   7.8652
     7.8988   7.8988   8.6270   8.6270   9.0433   9.0433   9.1225   9.1225
     9.2378   9.2380   9.4903   9.4904   9.5794   9.5794   9.9731   9.9733
    12.2588  12.2590  13.0970  13.0972  13.1596  13.1598  14.3936  14.3939
    14.4637  14.4639  14.8892  14.8895  16.0645  16.0648  16.9130  16.9130
    17.0016  17.0017  17.1225  17.1225  17.4620

          k = 0.0000 0.2500 0.3536 ( 18528 PWs)   bands (ev):

   -49.0192 -49.0190 -49.0174 -49.0171 -23.3069 -23.3066 -23.2902 -23.2899
   -23.2802 -23.2800 -23.2720 -23.2718 -23.2525 -23.2522 -23.2366 -23.2363
   -21.9929 -21.9929 -21.9723 -21.9723  -6.7109  -6.7108  -6.1512  -6.1511
    -6.0230  -6.0229  -5.9053  -5.9052  -5.6564  -5.6563  -5.6152  -5.6150
    -4.1473  -4.1473  -4.0656  -4.0656  -3.9131  -3.9131  -3.9046  -3.9046
    -3.7295  -3.7295  -3.7177  -3.7177   5.5628   5.5631   5.7110   5.7112
     6.0582   6.0584   6.4814   6.4814   6.6178   6.6178   6.7228   6.7230
     6.9325   6.9325   7.1607   7.1608   7.4163   7.4164   7.7318   7.7319
     7.7630   7.7631   8.4666   8.4667   9.1209   9.1210   9.1258   9.1258
     9.2069   9.2070   9.4749   9.4749   9.5758   9.5759   9.8989   9.8990
    12.4831  12.4833  13.1576  13.1578  13.2122  13.2124  14.3168  14.3170
    14.3610  14.3612  14.7363  14.7365  16.3481  16.3483  17.0502  17.0502
    17.1122  17.1123  17.2406  17.2406  17.4840

          k = 0.0000 0.3000 0.3536 ( 18494 PWs)   bands (ev):

   -49.0191 -49.0188 -49.0176 -49.0173 -23.3029 -23.3026 -23.2857 -23.2854
   -23.2794 -23.2792 -23.2726 -23.2723 -23.2573 -23.2570 -23.2411 -23.2408
   -21.9909 -21.9909 -21.9737 -21.9737  -6.6617  -6.6615  -6.2074  -6.2073
    -5.9971  -5.9969  -5.9154  -5.9154  -5.6802  -5.6801  -5.6468  -5.6467
    -4.1364  -4.1364  -4.0755  -4.0755  -3.9123  -3.9123  -3.8962  -3.8962
    -3.7064  -3.7064  -3.6916  -3.6915   5.7259   5.7261   5.8279   5.8281
     6.1617   6.1619   6.4702   6.4702   6.6208   6.6208   6.7698   6.7699
     6.9100   6.9101   7.0640   7.0641   7.2934   7.2935   7.5982   7.5983
     7.6140   7.6140   8.2458   8.2460   9.1022   9.1024   9.1505   9.1506
     9.2854   9.2854   9.4662   9.4663   9.5679   9.5680   9.8201   9.8203
    12.7215  12.7217  13.2354  13.2356  13.2815  13.2816  14.2184  14.2186
    14.2429  14.2431  14.5613  14.5615  16.6716  16.6719  17.1666  17.1667
    17.2505  17.2506  17.3770  17.3770  17.5125

          k = 0.0000 0.3500 0.3536 ( 18514 PWs)   bands (ev):

   -49.0189 -49.0186 -49.0177 -49.0174 -23.2983 -23.2980 -23.2807 -23.2804
   -23.2785 -23.2783 -23.2733 -23.2731 -23.2625 -23.2622 -23.2462 -23.2459
   -21.9886 -21.9886 -21.9754 -21.9754  -6.6077  -6.6075  -6.2638  -6.2637
    -5.9696  -5.9694  -5.9211  -5.9211  -5.7059  -5.7057  -5.6829  -5.6828
    -4.1236  -4.1236  -4.0842  -4.0842  -3.9117  -3.9117  -3.8938  -3.8937
    -3.6836  -3.6836  -3.6672  -3.6672   5.9107   5.9110   5.9399   5.9401
     6.2786   6.2787   6.4425   6.4426   6.6582   6.6582   6.8231   6.8232
     6.8249   6.8250   7.0520   7.0520   7.1494   7.1496   7.4587   7.4588
     7.4708   7.4709   8.0015   8.0017   9.0938   9.0940   9.1700   9.1701
     9.3640   9.3640   9.4657   9.4658   9.5558   9.5558   9.7450   9.7451
    12.9667  12.9669  13.3298  13.3300  13.3676  13.3677  14.1035  14.1037
    14.1134  14.1136  14.3682  14.3684  17.0218  17.0220  17.2596  17.2597
    17.3805  17.3805  17.5274  17.5275  17.5666

          k = 0.0000 0.4000 0.3536 ( 18520 PWs)   bands (ev):

   -49.0187 -49.0184 -49.0179 -49.0176 -23.2933 -23.2930 -23.2779 -23.2777
   -23.2752 -23.2749 -23.2743 -23.2741 -23.2676 -23.2674 -23.2517 -23.2515
   -21.9863 -21.9863 -21.9773 -21.9773  -6.5507  -6.5506  -6.3202  -6.3201
    -5.9429  -5.9427  -5.9218  -5.9218  -5.7311  -5.7310  -5.7179  -5.7178
    -4.1115  -4.1115  -4.0910  -4.0909  -3.9114  -3.9114  -3.8948  -3.8948
    -3.6640  -3.6640  -3.6480  -3.6480   6.0445   6.0446   6.1132   6.1134
     6.3805   6.3806   6.3990   6.3990   6.7023   6.7024   6.7727   6.7727
     6.8786   6.8787   6.9885   6.9887   7.0766   7.0766   7.3135   7.3135
     7.3584   7.3585   7.7535   7.7537   9.1074   9.1075   9.1800   9.1801
     9.4135   9.4136   9.4705   9.4705   9.5472   9.5473   9.6820   9.6821
    13.2130  13.2132  13.4389  13.4391  13.4694  13.4696  13.9771  13.9773
    13.9778  13.9780  14.1605  14.1607  17.3288  17.3288  17.3831  17.3833
    17.4512  17.4512  17.6784  17.6822  17.6876

          k = 0.0000 0.4500 0.3536 ( 18544 PWs)   bands (ev):

   -49.0185 -49.0183 -49.0181 -49.0178 -23.2880 -23.2877 -23.2786 -23.2785
   -23.2750 -23.2748 -23.2717 -23.2715 -23.2694 -23.2691 -23.2575 -23.2573
   -21.9840 -21.9840 -21.9794 -21.9794  -6.4927  -6.4925  -6.3768  -6.3767
    -5.9215  -5.9214  -5.9192  -5.9192  -5.7515  -5.7514  -5.7446  -5.7445
    -4.1028  -4.1028  -4.0952  -4.0952  -3.9112  -3.9112  -3.8968  -3.8968
    -3.6508  -3.6508  -3.6357  -3.6357   6.1429   6.1429   6.3205   6.3205
     6.3276   6.3278   6.4741   6.4741   6.6290   6.6291   6.7623   6.7625
     6.8990   6.8991   6.9795   6.9796   7.1022   7.1022   7.1911   7.1912
     7.2863   7.2864   7.5210   7.5211   9.1302   9.1302   9.1838   9.1838
     9.4203   9.4203   9.4757   9.4757   9.5624   9.5624   9.6342   9.6342
    13.4549  13.4551  13.5589  13.5590  13.5839  13.5840  13.8395  13.8397
    13.8477  13.8478  13.9430  13.9433  17.3700  17.3700  17.4779  17.4779
    17.7157  17.7159  17.8151  17.8156  17.8638

          k = 0.0000 0.5000 0.3536 ( 18528 PWs)   bands (ev):

   -49.0184 -49.0183 -49.0181 -49.0180 -23.2834 -23.2833 -23.2818 -23.2816
   -23.2748 -23.2747 -23.2732 -23.2730 -23.2635 -23.2634 -23.2633 -23.2631
   -21.9816 -21.9816 -21.9816 -21.9816  -6.4390  -6.4390  -6.4296  -6.4296
    -5.9174  -5.9174  -5.9128  -5.9128  -5.7598  -5.7598  -5.7548  -5.7548
    -4.0996  -4.0996  -4.0967  -4.0967  -3.9111  -3.9111  -3.8978  -3.8978
    -3.6462  -3.6462  -3.6315  -3.6315   6.2340   6.2340   6.2375   6.2376
     6.5259   6.5259   6.5300   6.5300   6.5715   6.5715   6.5729   6.5730
     7.0009   7.0009   7.0334   7.0334   7.0802   7.0802   7.1182   7.1182
     7.3311   7.3311   7.3502   7.3502   9.1419   9.1419   9.1846   9.1846
     9.4135   9.4135   9.4779   9.4779   9.5936   9.5936   9.5973   9.5973
    13.6424  13.6425  13.6617  13.6618  13.6844  13.6845  13.7222  13.7223
    13.7418  13.7418  13.7725  13.7726  17.3834  17.3834  17.4854  17.4854
    17.8673  17.8673  17.8937  17.8937  17.9903

          k = 0.0500 0.5000 0.3536 ( 18544 PWs)   bands (ev):

   -49.0184 -49.0183 -49.0181 -49.0180 -23.2852 -23.2851 -23.2840 -23.2839
   -23.2748 -23.2747 -23.2738 -23.2737 -23.2612 -23.2611 -23.2609 -23.2608
   -21.9816 -21.9816 -21.9816 -21.9816  -6.4467  -6.4467  -6.4402  -6.4402
    -5.9199  -5.9199  -5.8992  -5.8992  -5.7670  -5.7670  -5.7444  -5.7444
    -4.1122  -4.1122  -4.0758  -4.0758  -3.9398  -3.9398  -3.8656  -3.8656
    -3.6469  -3.6469  -3.6312  -3.6312   6.1996   6.1996   6.2013   6.2013
     6.4150   6.4150   6.4469   6.4469   6.6432   6.6432   6.7083   6.7083
     6.9403   6.9404   7.0653   7.0653   7.0691   7.0691   7.0944   7.0944
     7.4088   7.4088   7.4230   7.4231   9.1090   9.1090   9.1980   9.1980
     9.3929   9.3929   9.4539   9.4539   9.5868   9.5868   9.6067   9.6067
    13.5617  13.5617  13.6079  13.6080  13.7317  13.7318  13.7516  13.7516
    13.7771  13.7771  13.8337  13.8337  17.3815  17.3815  17.5005  17.5005
    17.8127  17.8127  17.8534  17.8534  17.8916

          k = 0.1000 0.5000 0.3536 ( 18516 PWs)   bands (ev):

   -49.0184 -49.0183 -49.0181 -49.0180 -23.2895 -23.2894 -23.2889 -23.2889
   -23.2748 -23.2747 -23.2744 -23.2743 -23.2563 -23.2563 -23.2560 -23.2559
   -21.9815 -21.9815 -21.9815 -21.9815  -6.4686  -6.4686  -6.4683  -6.4683
    -5.9213  -5.9213  -5.8682  -5.8682  -5.7768  -5.7768  -5.7260  -5.7260
    -4.1170  -4.1170  -4.0471  -4.0471  -3.9687  -3.9687  -3.8268  -3.8268
    -3.6485  -3.6485  -3.6301  -3.6301   6.0847   6.0847   6.0894   6.0894
     6.3426   6.3426   6.3806   6.3806   6.7240   6.7240   6.8009   6.8009
     6.8792   6.8792   7.0052   7.0052   7.1070   7.1070   7.1382   7.1382
     7.5698   7.5698   7.5806   7.5806   9.0500   9.0500   9.1975   9.1975
     9.3335   9.3335   9.3956   9.3956   9.5711   9.5711   9.6226   9.6226
    13.4714  13.4714  13.5244  13.5244  13.7719  13.7720  13.7881  13.7882
    13.8883  13.8883  13.9301  13.9301  17.3544  17.3545  17.4995  17.4995
    17.6844  17.6844  17.6956  17.6957  17.9097

          k = 0.1500 0.5000 0.3536 ( 18532 PWs)   bands (ev):

   -49.0184 -49.0183 -49.0181 -49.0180 -23.2948 -23.2948 -23.2945 -23.2944
   -23.2748 -23.2747 -23.2746 -23.2744 -23.2509 -23.2508 -23.2506 -23.2505
   -21.9813 -21.9813 -21.9813 -21.9813  -6.5075  -6.5075  -6.5000  -6.5000
    -5.9223  -5.9223  -5.8262  -5.8262  -5.7893  -5.7893  -5.7024  -5.7024
    -4.1125  -4.1125  -4.0144  -4.0144  -3.9909  -3.9909  -3.7913  -3.7913
    -3.6492  -3.6492  -3.6279  -3.6279   5.9263   5.9263   5.9359   5.9359
     6.2958   6.2958   6.3504   6.3504   6.7265   6.7265   6.8021   6.8022
     6.8968   6.8968   7.0064   7.0064   7.1620   7.1620   7.2088   7.2088
     7.7423   7.7423   7.7878   7.7878   8.9821   8.9821   9.1652   9.1652
     9.2384   9.2384   9.3200   9.3200   9.5571   9.5571   9.6340   9.6340
    13.3900  13.3900  13.4422  13.4422  13.8308  13.8309  13.8438  13.8439
    14.0028  14.0028  14.0317  14.0317  17.2406  17.2406  17.3314  17.3314
    17.6277  17.6277  17.7205  17.7206  17.9433

          k = 0.2000 0.5000 0.3536 ( 18496 PWs)   bands (ev):

   -49.0184 -49.0183 -49.0181 -49.0180 -23.3002 -23.3002 -23.3000 -23.2999
   -23.2748 -23.2747 -23.2745 -23.2743 -23.2456 -23.2455 -23.2453 -23.2452
   -21.9810 -21.9810 -21.9810 -21.9810  -6.5501  -6.5501  -6.5372  -6.5372
    -5.9229  -5.9229  -5.8043  -5.8043  -5.7799  -5.7799  -5.6766  -5.6766
    -4.0997  -4.0997  -4.0058  -4.0058  -3.9807  -3.9807  -3.7654  -3.7654
    -3.6447  -3.6447  -3.6238  -3.6238   5.7652   5.7652   5.7766   5.7766
     6.2514   6.2514   6.3235   6.3235   6.6931   6.6931   6.7536   6.7536
     6.9619   6.9619   7.0542   7.0542   7.2266   7.2266   7.2895   7.2895
     7.9219   7.9219   8.0057   8.0057   8.9106   8.9106   9.1052   9.1052
     9.1134   9.1134   9.2373   9.2373   9.5509   9.5509   9.6386   9.6386
    13.3185  13.3185  13.3659  13.3659  13.9010  13.9010  13.9109  13.9110
    14.1149  14.1149  14.1326  14.1326  17.0552  17.0552  17.1064  17.1064
    17.6570  17.6570  17.8165  17.8165  17.9887

          k = 0.2500 0.5000 0.3536 ( 18516 PWs)   bands (ev):

   -49.0184 -49.0183 -49.0181 -49.0180 -23.3053 -23.3052 -23.3050 -23.3049
   -23.2747 -23.2746 -23.2743 -23.2742 -23.2408 -23.2407 -23.2405 -23.2405
   -21.9808 -21.9808 -21.9807 -21.9807  -6.5914  -6.5914  -6.5758  -6.5758
    -5.9229  -5.9229  -5.8211  -5.8211  -5.7344  -5.7344  -5.6516  -5.6516
    -4.0803  -4.0803  -4.0132  -4.0132  -3.9492  -3.9492  -3.7553  -3.7553
    -3.6311  -3.6311  -3.6171  -3.6171   5.6169   5.6169   5.6280   5.6280
     6.2062   6.2062   6.2889   6.2890   6.6663   6.6663   6.7081   6.7081
     7.0357   7.0358   7.1148   7.1148   7.2938   7.2938   7.3640   7.3640
     8.0917   8.0917   8.2195   8.2195   8.8375   8.8375   8.9688   8.9688
     9.0354   9.0354   9.1522   9.1522   9.5514   9.5514   9.6369   9.6369
    13.2573  13.2573  13.2975  13.2975  13.9737  13.9738  13.9813  13.9813
    14.2195  14.2195  14.2284  14.2284  16.8572  16.8572  16.8871  16.8871
    17.7241  17.7241  17.9073  17.9073  18.0412

          k = 0.3000 0.5000 0.3536 ( 18500 PWs)   bands (ev):

   -49.0184 -49.0183 -49.0181 -49.0180 -23.3096 -23.3096 -23.3093 -23.3093
   -23.2745 -23.2744 -23.2742 -23.2741 -23.2366 -23.2366 -23.2364 -23.2363
   -21.9805 -21.9805 -21.9805 -21.9805  -6.6280  -6.6280  -6.6123  -6.6123
    -5.9217  -5.9217  -5.8386  -5.8386  -5.6932  -5.6932  -5.6298  -5.6298
    -4.0567  -4.0567  -4.0141  -4.0141  -3.9222  -3.9222  -3.7604  -3.7604
    -3.6110  -3.6110  -3.6076  -3.6076   5.4889   5.4889   5.4984   5.4984
     6.1639   6.1639   6.2462   6.2462   6.6494   6.6494   6.6763   6.6763
     7.1133   7.1133   7.1824   7.1824   7.3580   7.3580   7.4248   7.4248
     8.2322   8.2322   8.4177   8.4177   8.7667   8.7667   8.8155   8.8155
     8.9786   8.9786   9.0684   9.0684   9.5555   9.5555   9.6303   9.6303
    13.2068  13.2068  13.2386  13.2386  14.0415  14.0416  14.0473  14.0473
    14.3118  14.3118  14.3147  14.3147  16.6734  16.6734  16.6898  16.6899
    17.8087  17.8087  17.9713  17.9713  18.0950

          k = 0.3500 0.5000 0.3536 ( 18524 PWs)   bands (ev):

   -49.0184 -49.0183 -49.0181 -49.0180 -23.3132 -23.3132 -23.3129 -23.3129
   -23.2744 -23.2743 -23.2741 -23.2740 -23.2333 -23.2333 -23.2330 -23.2330
   -21.9802 -21.9802 -21.9802 -21.9802  -6.6576  -6.6576  -6.6440  -6.6440
    -5.9191  -5.9191  -5.8558  -5.8558  -5.6585  -5.6585  -5.6128  -5.6128
    -4.0323  -4.0323  -4.0099  -4.0099  -3.9005  -3.9005  -3.7752  -3.7752
    -3.5956  -3.5956  -3.5909  -3.5909   5.3855   5.3855   5.3929   5.3929
     6.1294   6.1294   6.2004   6.2004   6.6396   6.6396   6.6565   6.6566
     7.1917   7.1917   7.2522   7.2522   7.4155   7.4155   7.4696   7.4696
     8.3201   8.3201   8.5884   8.5884   8.6663   8.6663   8.7158   8.7159
     8.9476   8.9476   8.9896   8.9896   9.5610   9.5610   9.6201   9.6201
    13.1675  13.1675  13.1907  13.1907  14.0985  14.0986  14.1029  14.1030
    14.3872  14.3872  14.3875  14.3875  16.5176  16.5176  16.5253  16.5253
    17.8991  17.8991  18.0137  18.0137  18.1453

          k = 0.4000 0.5000 0.3536 ( 18540 PWs)   bands (ev):

   -49.0184 -49.0183 -49.0181 -49.0180 -23.3158 -23.3158 -23.3155 -23.3155
   -23.2743 -23.2742 -23.2740 -23.2739 -23.2309 -23.2308 -23.2306 -23.2305
   -21.9800 -21.9800 -21.9800 -21.9800  -6.6788  -6.6788  -6.6688  -6.6688
    -5.9144  -5.9144  -5.8719  -5.8719  -5.6313  -5.6313  -5.6019  -5.6019
    -4.0113  -4.0113  -4.0029  -4.0029  -3.8820  -3.8820  -3.7955  -3.7955
    -3.5831  -3.5831  -3.5757  -3.5757   5.3100   5.3100   5.3150   5.3150
     6.1065   6.1065   6.1581   6.1581   6.6348   6.6348   6.6448   6.6448
     7.2647   7.2648   7.3140   7.3140   7.4636   7.4636   7.4992   7.4992
     8.3434   8.3434   8.5260   8.5260   8.7089   8.7089   8.7292   8.7292
     8.9199   8.9199   8.9378   8.9378   9.5673   9.5673   9.6080   9.6080
    13.1399  13.1399  13.1548  13.1548  14.1410  14.1410  14.1441  14.1441
    14.4422  14.4422  14.4434  14.4434  16.3994  16.3994  16.4021  16.4021
    17.9823  17.9823  18.0436  18.0436  18.1912

          k = 0.4500 0.5000 0.3536 ( 18540 PWs)   bands (ev):

   -49.0184 -49.0183 -49.0181 -49.0180 -23.3174 -23.3174 -23.3172 -23.3171
   -23.2742 -23.2741 -23.2740 -23.2738 -23.2294 -23.2293 -23.2291 -23.2291
   -21.9799 -21.9799 -21.9799 -21.9799  -6.6907  -6.6907  -6.6854  -6.6854
    -5.9075  -5.9075  -5.8861  -5.8861  -5.6121  -5.6121  -5.5978  -5.5978
    -3.9976  -3.9976  -3.9961  -3.9961  -3.8633  -3.8633  -3.8186  -3.8186
    -3.5725  -3.5725  -3.5675  -3.5675   5.2644   5.2644   5.2669   5.2669
     6.0976   6.0976   6.1247   6.1247   6.6333   6.6333   6.6380   6.6380
     7.3230   7.3230   7.3524   7.3525   7.4990   7.4991   7.5155   7.5155
     8.3377   8.3377   8.4189   8.4189   8.7379   8.7379   8.8067   8.8067
     8.8782   8.8782   8.9315   8.9315   9.5748   9.5748   9.5955   9.5955
    13.1244  13.1244  13.1317  13.1317  14.1671  14.1672  14.1688  14.1689
    14.4765  14.4765  14.4774  14.4774  16.3256  16.3256  16.3261  16.3261
    18.0411  18.0411  18.0625  18.0625  18.2389

          k = 0.5000 0.5000 0.3536 ( 18616 PWs)   bands (ev):

   -49.0184 -49.0183 -49.0181 -49.0180 -23.3180 -23.3180 -23.3177 -23.3177
   -23.2742 -23.2741 -23.2739 -23.2738 -23.2289 -23.2288 -23.2286 -23.2286
   -21.9799 -21.9799 -21.9799 -21.9799  -6.6929  -6.6929  -6.6928  -6.6928
    -5.8981  -5.8981  -5.8980  -5.8980  -5.6011  -5.6011  -5.6010  -5.6010
    -3.9931  -3.9931  -3.9931  -3.9931  -3.8420  -3.8420  -3.8420  -3.8420
    -3.5667  -3.5667  -3.5667  -3.5667   5.2498   5.2498   5.2500   5.2500
     6.1038   6.1038   6.1039   6.1039   6.6344   6.6344   6.6344   6.6344
     7.3552   7.3552   7.3553   7.3554   7.5169   7.5169   7.5169   7.5169
     8.3548   8.3548   8.3550   8.3550   8.7805   8.7805   8.7807   8.7807
     8.9088   8.9088   8.9090   8.9090   9.5841   9.5841   9.5842   9.5842
    13.1215  13.1215  13.1217  13.1217  14.1763  14.1764  14.1766  14.1766
    14.4884  14.4884  14.4886  14.4886  16.3004  16.3004  16.3006  16.3006
    18.0653  18.0653  18.0653  18.0653  18.2883

          k = 0.4500 0.4500 0.3536 ( 18510 PWs)   bands (ev):

   -49.0184 -49.0182 -49.0181 -49.0180 -23.3178 -23.3175 -23.3160 -23.3157
   -23.2743 -23.2741 -23.2740 -23.2738 -23.2308 -23.2305 -23.2289 -23.2286
   -21.9803 -21.9803 -21.9796 -21.9796  -6.6902  -6.6901  -6.6756  -6.6755
    -5.9076  -5.9076  -5.8838  -5.8837  -5.6198  -5.6197  -5.5992  -5.5991
    -4.0075  -4.0075  -3.9945  -3.9945  -3.8599  -3.8599  -3.8161  -3.8161
    -3.5772  -3.5772  -3.5719  -3.5719   5.2498   5.2500   5.3128   5.3130
     6.1028   6.1029   6.1351   6.1352   6.6337   6.6338   6.6404   6.6404
     7.2787   7.2789   7.3553   7.3554   7.4879   7.4879   7.5232   7.5232
     8.3394   8.3396   8.4611   8.4612   8.6861   8.6861   8.8081   8.8082
     8.8834   8.8835   8.9463   8.9464   9.5741   9.5741   9.5955   9.5955
    13.1184  13.1185  13.1518  13.1519  14.1384  14.1386  14.1739  14.1742
    14.4635  14.4637  14.4757  14.4759  16.2964  16.2966  16.4021  16.4024
    18.0107  18.0107  18.0783  18.0783  18.2264

          k = 0.4000 0.4000 0.3536 ( 18500 PWs)   bands (ev):

   -49.0185 -49.0182 -49.0182 -49.0179 -23.3172 -23.3170 -23.3102 -23.3099
   -23.2749 -23.2746 -23.2738 -23.2735 -23.2364 -23.2362 -23.2291 -23.2288
   -21.9816 -21.9816 -21.9788 -21.9788  -6.6822  -6.6820  -6.6268  -6.6266
    -5.9182  -5.9181  -5.8591  -5.8590  -5.6651  -5.6649  -5.6013  -5.6012
    -4.0419  -4.0419  -3.9985  -3.9985  -3.8698  -3.8698  -3.7895  -3.7895
    -3.6020  -3.6020  -3.5926  -3.5926   5.2498   5.2501   5.4950   5.4952
     6.1183   6.1183   6.2057   6.2058   6.6345   6.6345   6.6584   6.6584
     7.1006   7.1008   7.3099   7.3099   7.4460   7.4461   7.5678   7.5678
     8.3058   8.3058   8.4551   8.4551   8.6505   8.6506   8.8504   8.8505
     8.9012   8.9013   9.0180   9.0181   9.5626   9.5626   9.6069   9.6069
    13.1101  13.1102  13.2403  13.2405  14.0097  14.0099  14.1410  14.1412
    14.4140  14.4142  14.4589  14.4592  16.2837  16.2839  16.6859  16.6861
    17.8851  17.8851  18.0612  18.0612  18.1915

          k = 0.3500 0.3500 0.3536 ( 18512 PWs)   bands (ev):

   -49.0186 -49.0183 -49.0180 -49.0178 -23.3164 -23.3161 -23.3012 -23.3009
   -23.2757 -23.2754 -23.2733 -23.2731 -23.2452 -23.2449 -23.2294 -23.2291
   -21.9836 -21.9836 -21.9776 -21.9776  -6.6737  -6.6736  -6.5500  -6.5498
    -5.9309  -5.9309  -5.8245  -5.8245  -5.7292  -5.7290  -5.6042  -5.6041
    -4.0825  -4.0825  -4.0043  -4.0043  -3.8752  -3.8752  -3.7697  -3.7697
    -3.6378  -3.6378  -3.6270  -3.6270   5.2500   5.2502   5.7761   5.7763
     6.1381   6.1381   6.3089   6.3090   6.6356   6.6356   6.7011   6.7011
     6.9035   6.9036   7.1665   7.1666   7.4525   7.4527   7.6497   7.6498
     8.0132   8.0133   8.3819   8.3820   8.7572   8.7573   8.9276   8.9277
     9.0236   9.0237   9.1216   9.1216   9.5479   9.5479   9.6139   9.6139
    13.0960  13.0962  13.3786  13.3788  13.7900  13.7903  14.0141  14.0143
    14.4156  14.4158  14.4609  14.4611  16.2601  16.2603  17.0826  17.0829
    17.7328  17.7328  17.9373  17.9373  18.1595

          k = 0.3000 0.3000 0.3536 ( 18536 PWs)   bands (ev):

   -49.0188 -49.0185 -49.0179 -49.0176 -23.3154 -23.3151 -23.2901 -23.2898
   -23.2766 -23.2764 -23.2727 -23.2724 -23.2561 -23.2558 -23.2297 -23.2294
   -21.9861 -21.9861 -21.9761 -21.9761  -6.6720  -6.6718  -6.4519  -6.4518
    -5.9440  -5.9439  -5.8224  -5.8222  -5.7601  -5.7600  -5.6065  -5.6064
    -4.1195  -4.1195  -4.0111  -4.0111  -3.8789  -3.8789  -3.7617  -3.7616
    -3.6798  -3.6798  -3.6711  -3.6711   5.2501   5.2503   6.1163   6.1165
     6.1483   6.1484   6.4160   6.4160   6.6352   6.6352   6.7352   6.7353
     6.8072   6.8073   6.9404   6.9404   7.4617   7.4618   7.6476   7.6476
     7.7692   7.7692   8.3982   8.3983   8.7950   8.7950   8.9705   8.9707
     9.2129   9.2130   9.2701   9.2702   9.5293   9.5293   9.6173   9.6173
    13.0723  13.0725  13.4234  13.4236  13.6419  13.6421  13.8089  13.8091
    14.4721  14.4722  14.4907  14.4908  16.2219  16.2222  17.4151  17.4152
    17.6203  17.6203  17.7903  17.7904  18.0540

          k = 0.2500 0.2500 0.3536 ( 18550 PWs)   bands (ev):

   -49.0190 -49.0187 -49.0177 -49.0174 -23.3144 -23.3141 -23.2804 -23.2803
   -23.2756 -23.2755 -23.2714 -23.2711 -23.2680 -23.2677 -23.2299 -23.2296
   -21.9889 -21.9889 -21.9744 -21.9744  -6.6842  -6.6840  -6.3413  -6.3412
    -5.9564  -5.9563  -5.8845  -5.8843  -5.7144  -5.7143  -5.6071  -5.6070
    -4.1474  -4.1474  -4.0175  -4.0175  -3.8845  -3.8845  -3.7720  -3.7720
    -3.7204  -3.7204  -3.7155  -3.7155   5.2500   5.2502   6.1180   6.1181
     6.4240   6.4240   6.5282   6.5283   6.5717   6.5719   6.6362   6.6363
     6.6870   6.6871   7.0166   7.0166   7.2946   7.2946   7.5648   7.5649
     7.8922   7.8922   8.4370   8.4370   8.8252   8.8252   9.0296   9.0298
     9.3210   9.3211   9.4017   9.4018   9.5240   9.5241   9.6560   9.6560
    12.9886  12.9886  13.1725  13.1725  13.5843  13.5845  13.8337  13.8339
    14.5004  14.5006  14.6003  14.6006  16.1628  16.1631  17.3267  17.3267
    17.4999  17.4999  17.8323  17.8350  17.8936

          k = 0.2000 0.2000 0.3536 ( 18542 PWs)   bands (ev):

   -49.0192 -49.0189 -49.0175 -49.0172 -23.3136 -23.3134 -23.2808 -23.2805
   -23.2791 -23.2788 -23.2724 -23.2721 -23.2631 -23.2629 -23.2299 -23.2296
   -21.9918 -21.9918 -21.9727 -21.9727  -6.7131  -6.7130  -6.2285  -6.2284
    -5.9809  -5.9808  -5.9193  -5.9192  -5.6646  -5.6645  -5.6050  -5.6048
    -4.1633  -4.1633  -4.0223  -4.0223  -3.8975  -3.8975  -3.8078  -3.8078
    -3.7586  -3.7586  -3.7390  -3.7390   5.2489   5.2491   6.0507   6.0509
     6.2045   6.2047   6.4793   6.4793   6.6106   6.6107   6.6492   6.6493
     6.8478   6.8480   7.1128   7.1128   7.3221   7.3221   7.5994   7.5995
     8.0237   8.0238   8.4892   8.4892   8.8736   8.8737   9.1102   9.1103
     9.3393   9.3394   9.4145   9.4145   9.5377   9.5377   9.7921   9.7923
    12.6904  12.6906  13.0893  13.0894  13.3811  13.3813  14.0644  14.0646
    14.5272  14.5274  14.7434  14.7436  16.0709  16.0711  17.1508  17.1508
    17.2859  17.2860  17.5160  17.5161  17.7168

          k = 0.1500 0.1500 0.3536 ( 18532 PWs)   bands (ev):

   -49.0194 -49.0191 -49.0173 -49.0170 -23.3135 -23.3132 -23.2899 -23.2897
   -23.2808 -23.2806 -23.2716 -23.2713 -23.2527 -23.2525 -23.2295 -23.2292
   -21.9943 -21.9943 -21.9711 -21.9711  -6.7537  -6.7535  -6.1270  -6.1270
    -6.0156  -6.0154  -5.9167  -5.9167  -5.6245  -5.6244  -5.5989  -5.5987
    -4.1676  -4.1676  -4.0250  -4.0250  -3.9214  -3.9214  -3.8510  -3.8509
    -3.7882  -3.7882  -3.7498  -3.7498   5.2446   5.2449   5.8368   5.8370
     5.9726   5.9728   6.4921   6.4921   6.6118   6.6119   6.6611   6.6612
     6.9842   6.9842   7.1497   7.1498   7.6304   7.6305   7.6494   7.6495
     8.1443   8.1444   8.5283   8.5284   8.9725   8.9727   9.2048   9.2048
     9.2139   9.2140   9.4794   9.4795   9.5415   9.5415   9.9351   9.9353
    12.3459  12.3461  13.0627  13.0629  13.2246  13.2248  14.2774  14.2776
    14.5533  14.5535  14.9001  14.9004  15.9305  15.9307  16.9655  16.9655
    17.1002  17.1002  17.1646  17.1648  17.5898

          k = 0.1000 0.1000 0.3536 ( 18540 PWs)   bands (ev):

   -49.0195 -49.0192 -49.0171 -49.0169 -23.3143 -23.3140 -23.2969 -23.2966
   -23.2817 -23.2814 -23.2711 -23.2709 -23.2451 -23.2448 -23.2282 -23.2279
   -21.9964 -21.9964 -21.9699 -21.9699  -6.7946  -6.7944  -6.0767  -6.0766
    -6.0118  -6.0118  -5.8996  -5.8996  -5.6036  -5.6035  -5.5867  -5.5866
    -4.1634  -4.1634  -4.0264  -4.0264  -3.9498  -3.9498  -3.8860  -3.8860
    -3.8100  -3.8100  -3.7547  -3.7547   5.2311   5.2313   5.5546   5.5548
     5.9029   5.9031   6.4983   6.4984   6.6150   6.6151   6.6751   6.6751
     6.9081   6.9081   7.4164   7.4165   7.6675   7.6676   7.9152   7.9152
     8.2393   8.2394   8.5314   8.5315   8.9488   8.9488   9.2075   9.2076
     9.3333   9.3335   9.5135   9.5136   9.5517   9.5518  10.0416  10.0418
    12.0424  12.0427  13.0390  13.0391  13.1283  13.1284  14.4274  14.4276
    14.5867  14.5869  15.0460  15.0462  15.7496  15.7498  16.7753  16.7753
    16.9276  16.9277  16.9888  16.9888  17.5022

          k = 0.0500 0.0500 0.3536 ( 18524 PWs)   bands (ev):

   -49.0196 -49.0193 -49.0171 -49.0168 -23.3158 -23.3155 -23.3003 -23.3000
   -23.2823 -23.2820 -23.2708 -23.2706 -23.2412 -23.2409 -23.2263 -23.2260
   -21.9977 -21.9977 -21.9691 -21.9691  -6.8244  -6.8242  -6.0845  -6.0843
    -5.9719  -5.9719  -5.8769  -5.8769  -5.5979  -5.5978  -5.5755  -5.5754
    -4.1564  -4.1564  -4.0290  -4.0290  -3.9694  -3.9694  -3.9092  -3.9092
    -3.8245  -3.8244  -3.7561  -3.7561   5.1966   5.1969   5.3990   5.3992
     5.8581   5.8583   6.4997   6.4998   6.6166   6.6167   6.6872   6.6873
     6.8648   6.8648   7.6181   7.6182   7.6875   7.6876   8.1461   8.1461
     8.2996   8.2997   8.5081   8.5082   8.7277   8.7278   9.3770   9.3772
     9.4475   9.4476   9.5161   9.5162   9.5591   9.5591  10.1055  10.1057
    11.8282  11.8284  13.0131  13.0132  13.0892  13.0893  14.4792  14.4795
    14.6361  14.6363  15.1514  15.1516  15.5941  15.5944  16.6380  16.6381
    16.8243  16.8245  16.9189  16.9189  17.4490

          k = 0.0000 0.0000 0.3536 ( 18458 PWs)   bands (ev):

   -49.0196 -49.0193 -49.0170 -49.0167 -23.3165 -23.3163 -23.3012 -23.3010
   -23.2824 -23.2822 -23.2707 -23.2705 -23.2401 -23.2398 -23.2254 -23.2251
   -21.9982 -21.9982 -21.9689 -21.9689  -6.8352  -6.8350  -6.0894  -6.0893
    -5.9580  -5.9580  -5.8647  -5.8647  -5.5972  -5.5971  -5.5718  -5.5716
    -4.1530  -4.1530  -4.0310  -4.0310  -3.9752  -3.9752  -3.9178  -3.9177
    -3.8296  -3.8296  -3.7563  -3.7563   5.1701   5.1703   5.3603   5.3605
     5.8428   5.8430   6.4996   6.4996   6.6171   6.6172   6.6921   6.6921
     6.8509   6.8509   7.6927   7.6928   7.6959   7.6960   8.3031   8.3031
     8.3349   8.3349   8.4525   8.4527   8.5896   8.5898   9.4652   9.4654
     9.4948   9.4948   9.5165   9.5167   9.5455   9.5455  10.1268  10.1270
    11.7494  11.7497  13.0018  13.0019  13.0806  13.0807  14.4840  14.4842
    14.6588  14.6590  15.1901  15.1903  15.5357  15.5360  16.5915  16.5916
    16.7930  16.7932  16.8976  16.8976  17.4292

     Writing all to output data dir ./out/smo.save/ :
     XML data file, pseudopotentials, collected wavefunctions

     init_run     :      1.98s CPU      2.56s WALL (       1 calls)
     electrons    :     95.13s CPU    109.91s WALL (       1 calls)

     Called by init_run:
     wfcinit      :      0.00s CPU      0.03s WALL (       1 calls)
     wfcinit:atom :      0.02s CPU      0.03s WALL (       1 calls)
     wfcinit:wfcr :      1.74s CPU      1.75s WALL (       1 calls)
     potinit      :      0.35s CPU      0.63s WALL (       1 calls)
     hinit0       :      1.38s CPU      1.48s WALL (       1 calls)

     Called by electrons:
     c_bands      :     95.13s CPU    106.78s WALL (       1 calls)
     v_of_rho     :      0.18s CPU      0.22s WALL (       1 calls)
     v_h          :      0.08s CPU      0.10s WALL (       1 calls)
     v_xc         :      0.10s CPU      0.12s WALL (       1 calls)
     newd         :      0.07s CPU      0.08s WALL (       1 calls)
     PAW_pot      :      0.03s CPU      0.03s WALL (       1 calls)

     Called by c_bands:
     init_us_2    :      0.06s CPU      0.09s WALL (       1 calls)
     cegterg      :     90.70s CPU     91.02s WALL (       6 calls)

     Called by sum_band:

     Called by *egterg:
     cdiaghg      :      1.71s CPU      1.71s WALL (     121 calls)
     cegterg:over :      8.84s CPU      8.86s WALL (     120 calls)
     cegterg:upda :      5.57s CPU      5.59s WALL (     120 calls)
     cegterg:last :     13.23s CPU     13.25s WALL (      44 calls)
     h_psi        :     55.11s CPU     55.27s WALL (     127 calls)
     s_psi        :      6.50s CPU      6.51s WALL (     127 calls)
     g_psi        :      0.23s CPU      0.23s WALL (     120 calls)

     Called by h_psi:
     h_psi:calbec :      6.06s CPU      6.08s WALL (     127 calls)
     vloc_psi     :     42.36s CPU     42.45s WALL (     127 calls)
                                        0.00s GPU  (     127 calls)
     add_vuspsi   :      6.44s CPU      6.45s WALL (     127 calls)

     General routines
     calbec       :      6.06s CPU      6.08s WALL (     127 calls)
     fft          :      0.16s CPU      0.16s WALL (       6 calls)
     ffts         :      0.01s CPU      0.01s WALL (       1 calls)
     fftw         :     38.68s CPU     38.77s WALL (    9506 calls)
     interpolate  :      0.06s CPU      0.07s WALL (       1 calls)
     davcio       :      0.00s CPU      3.17s WALL (       2 calls)

     Parallel routines

     PAW routines
     PAW_pot      :      0.03s CPU      0.03s WALL (       1 calls)

     PWSCF        :   1m37.61s CPU   1m57.08s WALL


   This run was terminated on:  20:38:12  29Nov2025            

=------------------------------------------------------------------------------=
   JOB DONE.
=------------------------------------------------------------------------------=
