
             +---------------------------------------------------+
             |                                                   |
             |                   WANNIER90                       |
             |                                                   |
             +---------------------------------------------------+
             |                                                   |
             |        Welcome to the Maximally-Localized         |
             |        Generalized Wannier Functions code         |
             |            http://www.wannier.org                 |
             |                                                   |
             |                                                   |
             |  Wannier90 Developer Group:                       |
             |    Giovanni Pizzi    (Paul Scherrer Institute)    |
             |    Valerio Vitale    (University of Trieste)      |
             |    David Vanderbilt  (Rutgers University)         |
             |    Nicola Marzari    (EPFL)                       |
             |    Ivo Souza         (Universidad del Pais Vasco) |
             |    Arash A. Mostofi  (Imperial College London)    |
             |    Jonathan R. Yates (University of Oxford)       |
             |                                                   |
             |  For the full list of Wannier90 3.x authors,      |
             |  please check the code documentation and the      |
             |  README on the GitHub page of the code            |
             |                                                   |
             |                                                   |
             |  Please cite                                      |
             |                                                   |
             |  [ref] "Wannier90 as a community code:            |
             |        new features and applications",            |
             |        G. Pizzi et al., J. Phys. Cond. Matt. 32,  |
             |        165902 (2020).                             |
             |        http://doi.org/10.1088/1361-648X/ab51ff    |
             |                                                   |
             |  in any publications arising from the use of      |
             |  this code. For the method please cite            |
             |                                                   |
             |  [ref] "Maximally Localized Generalised Wannier   |
             |         Functions for Composite Energy Bands"     |
             |         N. Marzari and D. Vanderbilt              |
             |         Phys. Rev. B 56 12847 (1997)              |
             |                                                   |
             |  [ref] "Maximally Localized Wannier Functions     |
             |         for Entangled Energy Bands"               |
             |         I. Souza, N. Marzari and D. Vanderbilt    |
             |         Phys. Rev. B 65 035109 (2001)             |
             |                                                   |
             |                                                   |
             | Copyright (c) 1996-2020                           |
             |        The Wannier90 Developer Group and          |
             |        individual contributors                    |
             |                                                   |
             |      Release: 3.1.0        5th March    2020      |
             |                                                   |
             | This program is free software; you can            |
             | redistribute it and/or modify it under the terms  |
             | of the GNU General Public License as published by |
             | the Free Software Foundation; either version 2 of |
             | the License, or (at your option) any later version|
             |                                                   |
             | This program is distributed in the hope that it   |
             | will be useful, but WITHOUT ANY WARRANTY; without |
             | even the implied warranty of MERCHANTABILITY or   |
             | FITNESS FOR A PARTICULAR PURPOSE. See the GNU     |
             | General Public License for more details.          |
             |                                                   |
             | You should have received a copy of the GNU General|
             | Public License along with this program; if not,   |
             | write to the Free Software Foundation, Inc.,      |
             | 675 Mass Ave, Cambridge, MA 02139, USA.           |
             |                                                   |
             +---------------------------------------------------+
             |    Execution started on 29Nov2025 at 20:40:36     |
             +---------------------------------------------------+
 
 ******************************************************************************
 * -> Using CODATA 2006 constant values                                       *
 *    (http://physics.nist.gov/cuu/Constants/index.html)                      *
 * -> Using Bohr value from CODATA                                            *
 ******************************************************************************

 Running in parallel on 128 CPUs

                                    ------
                                    SYSTEM
                                    ------

                              Lattice Vectors (Ang)
                    a_1     5.613960   0.000000   0.000000
                    a_2     0.000000   5.613960   0.000000
                    a_3     0.000000   0.000000   7.939340

                   Unit Cell Volume:     250.22058  (Ang^3)

                        Reciprocal-Space Vectors (Ang^-1)
                    b_1     1.119207   0.000000   0.000000
                    b_2     0.000000   1.119207   0.000000
                    b_3     0.000000   0.000000   0.791399
  
 *----------------------------------------------------------------------------*
 |   Site       Fractional Coordinate          Cartesian Coordinate (Ang)     |
 +----------------------------------------------------------------------------+
 | sr   1   0.00000   0.50000   0.25000   |    0.00000   2.80698   1.98483    |
 | sr   2   0.00000   0.50000   0.75000   |    0.00000   2.80698   5.95450    |
 | sr   3   0.50000   0.00000   0.75000   |    2.80698   0.00000   5.95450    |
 | sr   4   0.50000   0.00000   0.25000   |    2.80698   0.00000   1.98483    |
 | mo   1   0.00000   0.00000   0.00000   |    0.00000   0.00000   0.00000    |
 | mo   2   0.00000   0.00000   0.50000   |    0.00000   0.00000   3.96967    |
 | mo   3   0.50000   0.50000   0.50000   |    2.80698   2.80698   3.96967    |
 | mo   4   0.50000   0.50000   0.00000   |    2.80698   2.80698   0.00000    |
 | o    1   0.25000   0.75000   0.02227   |    1.40349   4.21047   0.17677    |
 | o    2   0.25000   0.25000  -0.02227   |    1.40349   1.40349  -0.17677    |
 | o    3   0.75000   0.25000   0.52226   |    4.21047   1.40349   4.14644    |
 | o    4   0.75000   0.75000   0.47773   |    4.21047   4.21047   3.79290    |
 | o    5   0.75000   0.25000  -0.02227   |    4.21047   1.40349  -0.17677    |
 | o    6   0.75000   0.75000   0.02227   |    4.21047   4.21047   0.17677    |
 | o    7   0.25000   0.75000   0.47773   |    1.40349   4.21047   3.79290    |
 | o    8   0.25000   0.25000   0.52226   |    1.40349   1.40349   4.14644    |
 | o    9   0.00000   0.04453   0.25000   |    0.00000   0.24999   1.98483    |
 | o   10   0.00000  -0.04453   0.75000   |    0.00000  -0.24999   5.95450    |
 | o   11   0.50000   0.54453   0.75000   |    2.80698   3.05697   5.95450    |
 | o   12   0.50000   0.45547   0.25000   |    2.80698   2.55699   1.98483    |
 *----------------------------------------------------------------------------*
                                -----------
                                PROJECTIONS
                                -----------
  
 +----------------------------------------------------------------------------+
 |     Frac. Coord.   l mr  r        z-axis               x-axis          Z/a |
 +----------------------------------------------------------------------------+
 |  0.00  0.00  0.00  2  2  1  0.000  0.000  1.000  0.707  0.707  0.000   1.0 |
 |  0.00  0.00  0.00  2  3  1  0.000  0.000  1.000  0.707  0.707  0.000   1.0 |
 |  0.00  0.00  0.00  2  5  1  0.000  0.000  1.000  0.707  0.707  0.000   1.0 |
 |  0.00  0.00  0.50  2  2  1  0.000  0.000  1.000  0.707  0.707  0.000   1.0 |
 |  0.00  0.00  0.50  2  3  1  0.000  0.000  1.000  0.707  0.707  0.000   1.0 |
 |  0.00  0.00  0.50  2  5  1  0.000  0.000  1.000  0.707  0.707  0.000   1.0 |
 |  0.50  0.50  0.50  2  2  1  0.000  0.000  1.000  0.707  0.707  0.000   1.0 |
 |  0.50  0.50  0.50  2  3  1  0.000  0.000  1.000  0.707  0.707  0.000   1.0 |
 |  0.50  0.50  0.50  2  5  1  0.000  0.000  1.000  0.707  0.707  0.000   1.0 |
 |  0.50  0.50  0.00  2  2  1  0.000  0.000  1.000  0.707  0.707  0.000   1.0 |
 |  0.50  0.50  0.00  2  3  1  0.000  0.000  1.000  0.707  0.707  0.000   1.0 |
 |  0.50  0.50  0.00  2  5  1  0.000  0.000  1.000  0.707  0.707  0.000   1.0 |
 |  0.00  0.00  0.00  2  1  1  0.000  0.000  1.000  0.707  0.707  0.000   1.0 |
 |  0.00  0.00  0.00  2  4  1  0.000  0.000  1.000  0.707  0.707  0.000   1.0 |
 |  0.00  0.00  0.50  2  1  1  0.000  0.000  1.000  0.707  0.707  0.000   1.0 |
 |  0.00  0.00  0.50  2  4  1  0.000  0.000  1.000  0.707  0.707  0.000   1.0 |
 |  0.50  0.50  0.50  2  1  1  0.000  0.000  1.000  0.707  0.707  0.000   1.0 |
 |  0.50  0.50  0.50  2  4  1  0.000  0.000  1.000  0.707  0.707  0.000   1.0 |
 |  0.50  0.50  0.00  2  1  1  0.000  0.000  1.000  0.707  0.707  0.000   1.0 |
 |  0.50  0.50  0.00  2  4  1  0.000  0.000  1.000  0.707  0.707  0.000   1.0 |
 |  0.25  0.75  0.02  1  1  1  0.000  0.000  1.000  1.000  0.000  0.000   1.0 |
 |  0.25  0.75  0.02  1  2  1  0.000  0.000  1.000  1.000  0.000  0.000   1.0 |
 |  0.25  0.75  0.02  1  3  1  0.000  0.000  1.000  1.000  0.000  0.000   1.0 |
 |  0.25  0.25 -0.02  1  1  1  0.000  0.000  1.000  1.000  0.000  0.000   1.0 |
 |  0.25  0.25 -0.02  1  2  1  0.000  0.000  1.000  1.000  0.000  0.000   1.0 |
 |  0.25  0.25 -0.02  1  3  1  0.000  0.000  1.000  1.000  0.000  0.000   1.0 |
 |  0.75  0.25  0.52  1  1  1  0.000  0.000  1.000  1.000  0.000  0.000   1.0 |
 |  0.75  0.25  0.52  1  2  1  0.000  0.000  1.000  1.000  0.000  0.000   1.0 |
 |  0.75  0.25  0.52  1  3  1  0.000  0.000  1.000  1.000  0.000  0.000   1.0 |
 |  0.75  0.75  0.48  1  1  1  0.000  0.000  1.000  1.000  0.000  0.000   1.0 |
 |  0.75  0.75  0.48  1  2  1  0.000  0.000  1.000  1.000  0.000  0.000   1.0 |
 |  0.75  0.75  0.48  1  3  1  0.000  0.000  1.000  1.000  0.000  0.000   1.0 |
 |  0.75  0.25 -0.02  1  1  1  0.000  0.000  1.000  1.000  0.000  0.000   1.0 |
 |  0.75  0.25 -0.02  1  2  1  0.000  0.000  1.000  1.000  0.000  0.000   1.0 |
 |  0.75  0.25 -0.02  1  3  1  0.000  0.000  1.000  1.000  0.000  0.000   1.0 |
 |  0.75  0.75  0.02  1  1  1  0.000  0.000  1.000  1.000  0.000  0.000   1.0 |
 |  0.75  0.75  0.02  1  2  1  0.000  0.000  1.000  1.000  0.000  0.000   1.0 |
 |  0.75  0.75  0.02  1  3  1  0.000  0.000  1.000  1.000  0.000  0.000   1.0 |
 |  0.25  0.75  0.48  1  1  1  0.000  0.000  1.000  1.000  0.000  0.000   1.0 |
 |  0.25  0.75  0.48  1  2  1  0.000  0.000  1.000  1.000  0.000  0.000   1.0 |
 |  0.25  0.75  0.48  1  3  1  0.000  0.000  1.000  1.000  0.000  0.000   1.0 |
 |  0.25  0.25  0.52  1  1  1  0.000  0.000  1.000  1.000  0.000  0.000   1.0 |
 |  0.25  0.25  0.52  1  2  1  0.000  0.000  1.000  1.000  0.000  0.000   1.0 |
 |  0.25  0.25  0.52  1  3  1  0.000  0.000  1.000  1.000  0.000  0.000   1.0 |
 |  0.00  0.04  0.25  1  1  1  0.000  0.000  1.000  1.000  0.000  0.000   1.0 |
 |  0.00  0.04  0.25  1  2  1  0.000  0.000  1.000  1.000  0.000  0.000   1.0 |
 |  0.00  0.04  0.25  1  3  1  0.000  0.000  1.000  1.000  0.000  0.000   1.0 |
 |  0.00 -0.04  0.75  1  1  1  0.000  0.000  1.000  1.000  0.000  0.000   1.0 |
 |  0.00 -0.04  0.75  1  2  1  0.000  0.000  1.000  1.000  0.000  0.000   1.0 |
 |  0.00 -0.04  0.75  1  3  1  0.000  0.000  1.000  1.000  0.000  0.000   1.0 |
 |  0.50  0.54  0.75  1  1  1  0.000  0.000  1.000  1.000  0.000  0.000   1.0 |
 |  0.50  0.54  0.75  1  2  1  0.000  0.000  1.000  1.000  0.000  0.000   1.0 |
 |  0.50  0.54  0.75  1  3  1  0.000  0.000  1.000  1.000  0.000  0.000   1.0 |
 |  0.50  0.46  0.25  1  1  1  0.000  0.000  1.000  1.000  0.000  0.000   1.0 |
 |  0.50  0.46  0.25  1  2  1  0.000  0.000  1.000  1.000  0.000  0.000   1.0 |
 |  0.50  0.46  0.25  1  3  1  0.000  0.000  1.000  1.000  0.000  0.000   1.0 |
 +----------------------------------------------------------------------------+
  
                                ------------
                                K-POINT GRID
                                ------------
  
             Grid size =  5 x  5 x  5      Total points =  125
  
 *----------------------------------------------------------------------------*
 | k-point      Fractional Coordinate        Cartesian Coordinate (Ang^-1)    |
 +----------------------------------------------------------------------------+
 |     1    0.00000   0.00000   0.00000   |    0.00000   0.00000   0.00000    |
 |     2    0.00000   0.00000   0.20000   |    0.00000   0.00000   0.15828    |
 |     3    0.00000   0.00000   0.40000   |    0.00000   0.00000   0.31656    |
 |     4    0.00000   0.00000   0.60000   |    0.00000   0.00000   0.47484    |
 |     5    0.00000   0.00000   0.80000   |    0.00000   0.00000   0.63312    |
 |     6    0.00000   0.20000   0.00000   |    0.00000   0.22384   0.00000    |
 |     7    0.00000   0.20000   0.20000   |    0.00000   0.22384   0.15828    |
 |     8    0.00000   0.20000   0.40000   |    0.00000   0.22384   0.31656    |
 |     9    0.00000   0.20000   0.60000   |    0.00000   0.22384   0.47484    |
 |    10    0.00000   0.20000   0.80000   |    0.00000   0.22384   0.63312    |
 |    11    0.00000   0.40000   0.00000   |    0.00000   0.44768   0.00000    |
 |    12    0.00000   0.40000   0.20000   |    0.00000   0.44768   0.15828    |
 |    13    0.00000   0.40000   0.40000   |    0.00000   0.44768   0.31656    |
 |    14    0.00000   0.40000   0.60000   |    0.00000   0.44768   0.47484    |
 |    15    0.00000   0.40000   0.80000   |    0.00000   0.44768   0.63312    |
 |    16    0.00000   0.60000   0.00000   |    0.00000   0.67152   0.00000    |
 |    17    0.00000   0.60000   0.20000   |    0.00000   0.67152   0.15828    |
 |    18    0.00000   0.60000   0.40000   |    0.00000   0.67152   0.31656    |
 |    19    0.00000   0.60000   0.60000   |    0.00000   0.67152   0.47484    |
 |    20    0.00000   0.60000   0.80000   |    0.00000   0.67152   0.63312    |
 |    21    0.00000   0.80000   0.00000   |    0.00000   0.89537   0.00000    |
 |    22    0.00000   0.80000   0.20000   |    0.00000   0.89537   0.15828    |
 |    23    0.00000   0.80000   0.40000   |    0.00000   0.89537   0.31656    |
 |    24    0.00000   0.80000   0.60000   |    0.00000   0.89537   0.47484    |
 |    25    0.00000   0.80000   0.80000   |    0.00000   0.89537   0.63312    |
 |    26    0.20000   0.00000   0.00000   |    0.22384   0.00000   0.00000    |
 |    27    0.20000   0.00000   0.20000   |    0.22384   0.00000   0.15828    |
 |    28    0.20000   0.00000   0.40000   |    0.22384   0.00000   0.31656    |
 |    29    0.20000   0.00000   0.60000   |    0.22384   0.00000   0.47484    |
 |    30    0.20000   0.00000   0.80000   |    0.22384   0.00000   0.63312    |
 |    31    0.20000   0.20000   0.00000   |    0.22384   0.22384   0.00000    |
 |    32    0.20000   0.20000   0.20000   |    0.22384   0.22384   0.15828    |
 |    33    0.20000   0.20000   0.40000   |    0.22384   0.22384   0.31656    |
 |    34    0.20000   0.20000   0.60000   |    0.22384   0.22384   0.47484    |
 |    35    0.20000   0.20000   0.80000   |    0.22384   0.22384   0.63312    |
 |    36    0.20000   0.40000   0.00000   |    0.22384   0.44768   0.00000    |
 |    37    0.20000   0.40000   0.20000   |    0.22384   0.44768   0.15828    |
 |    38    0.20000   0.40000   0.40000   |    0.22384   0.44768   0.31656    |
 |    39    0.20000   0.40000   0.60000   |    0.22384   0.44768   0.47484    |
 |    40    0.20000   0.40000   0.80000   |    0.22384   0.44768   0.63312    |
 |    41    0.20000   0.60000   0.00000   |    0.22384   0.67152   0.00000    |
 |    42    0.20000   0.60000   0.20000   |    0.22384   0.67152   0.15828    |
 |    43    0.20000   0.60000   0.40000   |    0.22384   0.67152   0.31656    |
 |    44    0.20000   0.60000   0.60000   |    0.22384   0.67152   0.47484    |
 |    45    0.20000   0.60000   0.80000   |    0.22384   0.67152   0.63312    |
 |    46    0.20000   0.80000   0.00000   |    0.22384   0.89537   0.00000    |
 |    47    0.20000   0.80000   0.20000   |    0.22384   0.89537   0.15828    |
 |    48    0.20000   0.80000   0.40000   |    0.22384   0.89537   0.31656    |
 |    49    0.20000   0.80000   0.60000   |    0.22384   0.89537   0.47484    |
 |    50    0.20000   0.80000   0.80000   |    0.22384   0.89537   0.63312    |
 |    51    0.40000   0.00000   0.00000   |    0.44768   0.00000   0.00000    |
 |    52    0.40000   0.00000   0.20000   |    0.44768   0.00000   0.15828    |
 |    53    0.40000   0.00000   0.40000   |    0.44768   0.00000   0.31656    |
 |    54    0.40000   0.00000   0.60000   |    0.44768   0.00000   0.47484    |
 |    55    0.40000   0.00000   0.80000   |    0.44768   0.00000   0.63312    |
 |    56    0.40000   0.20000   0.00000   |    0.44768   0.22384   0.00000    |
 |    57    0.40000   0.20000   0.20000   |    0.44768   0.22384   0.15828    |
 |    58    0.40000   0.20000   0.40000   |    0.44768   0.22384   0.31656    |
 |    59    0.40000   0.20000   0.60000   |    0.44768   0.22384   0.47484    |
 |    60    0.40000   0.20000   0.80000   |    0.44768   0.22384   0.63312    |
 |    61    0.40000   0.40000   0.00000   |    0.44768   0.44768   0.00000    |
 |    62    0.40000   0.40000   0.20000   |    0.44768   0.44768   0.15828    |
 |    63    0.40000   0.40000   0.40000   |    0.44768   0.44768   0.31656    |
 |    64    0.40000   0.40000   0.60000   |    0.44768   0.44768   0.47484    |
 |    65    0.40000   0.40000   0.80000   |    0.44768   0.44768   0.63312    |
 |    66    0.40000   0.60000   0.00000   |    0.44768   0.67152   0.00000    |
 |    67    0.40000   0.60000   0.20000   |    0.44768   0.67152   0.15828    |
 |    68    0.40000   0.60000   0.40000   |    0.44768   0.67152   0.31656    |
 |    69    0.40000   0.60000   0.60000   |    0.44768   0.67152   0.47484    |
 |    70    0.40000   0.60000   0.80000   |    0.44768   0.67152   0.63312    |
 |    71    0.40000   0.80000   0.00000   |    0.44768   0.89537   0.00000    |
 |    72    0.40000   0.80000   0.20000   |    0.44768   0.89537   0.15828    |
 |    73    0.40000   0.80000   0.40000   |    0.44768   0.89537   0.31656    |
 |    74    0.40000   0.80000   0.60000   |    0.44768   0.89537   0.47484    |
 |    75    0.40000   0.80000   0.80000   |    0.44768   0.89537   0.63312    |
 |    76    0.60000   0.00000   0.00000   |    0.67152   0.00000   0.00000    |
 |    77    0.60000   0.00000   0.20000   |    0.67152   0.00000   0.15828    |
 |    78    0.60000   0.00000   0.40000   |    0.67152   0.00000   0.31656    |
 |    79    0.60000   0.00000   0.60000   |    0.67152   0.00000   0.47484    |
 |    80    0.60000   0.00000   0.80000   |    0.67152   0.00000   0.63312    |
 |    81    0.60000   0.20000   0.00000   |    0.67152   0.22384   0.00000    |
 |    82    0.60000   0.20000   0.20000   |    0.67152   0.22384   0.15828    |
 |    83    0.60000   0.20000   0.40000   |    0.67152   0.22384   0.31656    |
 |    84    0.60000   0.20000   0.60000   |    0.67152   0.22384   0.47484    |
 |    85    0.60000   0.20000   0.80000   |    0.67152   0.22384   0.63312    |
 |    86    0.60000   0.40000   0.00000   |    0.67152   0.44768   0.00000    |
 |    87    0.60000   0.40000   0.20000   |    0.67152   0.44768   0.15828    |
 |    88    0.60000   0.40000   0.40000   |    0.67152   0.44768   0.31656    |
 |    89    0.60000   0.40000   0.60000   |    0.67152   0.44768   0.47484    |
 |    90    0.60000   0.40000   0.80000   |    0.67152   0.44768   0.63312    |
 |    91    0.60000   0.60000   0.00000   |    0.67152   0.67152   0.00000    |
 |    92    0.60000   0.60000   0.20000   |    0.67152   0.67152   0.15828    |
 |    93    0.60000   0.60000   0.40000   |    0.67152   0.67152   0.31656    |
 |    94    0.60000   0.60000   0.60000   |    0.67152   0.67152   0.47484    |
 |    95    0.60000   0.60000   0.80000   |    0.67152   0.67152   0.63312    |
 |    96    0.60000   0.80000   0.00000   |    0.67152   0.89537   0.00000    |
 |    97    0.60000   0.80000   0.20000   |    0.67152   0.89537   0.15828    |
 |    98    0.60000   0.80000   0.40000   |    0.67152   0.89537   0.31656    |
 |    99    0.60000   0.80000   0.60000   |    0.67152   0.89537   0.47484    |
 |   100    0.60000   0.80000   0.80000   |    0.67152   0.89537   0.63312    |
 |   101    0.80000   0.00000   0.00000   |    0.89537   0.00000   0.00000    |
 |   102    0.80000   0.00000   0.20000   |    0.89537   0.00000   0.15828    |
 |   103    0.80000   0.00000   0.40000   |    0.89537   0.00000   0.31656    |
 |   104    0.80000   0.00000   0.60000   |    0.89537   0.00000   0.47484    |
 |   105    0.80000   0.00000   0.80000   |    0.89537   0.00000   0.63312    |
 |   106    0.80000   0.20000   0.00000   |    0.89537   0.22384   0.00000    |
 |   107    0.80000   0.20000   0.20000   |    0.89537   0.22384   0.15828    |
 |   108    0.80000   0.20000   0.40000   |    0.89537   0.22384   0.31656    |
 |   109    0.80000   0.20000   0.60000   |    0.89537   0.22384   0.47484    |
 |   110    0.80000   0.20000   0.80000   |    0.89537   0.22384   0.63312    |
 |   111    0.80000   0.40000   0.00000   |    0.89537   0.44768   0.00000    |
 |   112    0.80000   0.40000   0.20000   |    0.89537   0.44768   0.15828    |
 |   113    0.80000   0.40000   0.40000   |    0.89537   0.44768   0.31656    |
 |   114    0.80000   0.40000   0.60000   |    0.89537   0.44768   0.47484    |
 |   115    0.80000   0.40000   0.80000   |    0.89537   0.44768   0.63312    |
 |   116    0.80000   0.60000   0.00000   |    0.89537   0.67152   0.00000    |
 |   117    0.80000   0.60000   0.20000   |    0.89537   0.67152   0.15828    |
 |   118    0.80000   0.60000   0.40000   |    0.89537   0.67152   0.31656    |
 |   119    0.80000   0.60000   0.60000   |    0.89537   0.67152   0.47484    |
 |   120    0.80000   0.60000   0.80000   |    0.89537   0.67152   0.63312    |
 |   121    0.80000   0.80000   0.00000   |    0.89537   0.89537   0.00000    |
 |   122    0.80000   0.80000   0.20000   |    0.89537   0.89537   0.15828    |
 |   123    0.80000   0.80000   0.40000   |    0.89537   0.89537   0.31656    |
 |   124    0.80000   0.80000   0.60000   |    0.89537   0.89537   0.47484    |
 |   125    0.80000   0.80000   0.80000   |    0.89537   0.89537   0.63312    |
 *----------------------------------------------------------------------------*
  
  
 *---------------------------------- MAIN ------------------------------------*
 |  Number of Wannier Functions               :                56             |
 |  Number of Objective Wannier Functions     :                56             |
 |  Number of input Bloch states              :                56             |
 |  Output verbosity (1=low, 5=high)          :                 2             |
 |  Timing Level (1=low, 5=high)              :                 1             |
 |  Optimisation (0=memory, 3=speed)          :                 3             |
 |  Length Unit                               :               Ang             |
 |  Post-processing setup (write *.nnkp)      :                 F             |
 |  Using Gamma-only branch of algorithms     :                 F             |
 *----------------------------------------------------------------------------*
 *------------------------------- WANNIERISE ---------------------------------*
 |  Total number of iterations                :             10000             |
 |  Number of CG steps before reset           :                 5             |
 |  Trial step length for line search         :             2.000             |
 |  Convergence tolerence                     :         0.100E-11             |
 |  Convergence window                        :                 5             |
 |  Iterations between writing output         :               200             |
 |  Iterations between backing up to disk     :               100             |
 |  Write r^2_nm to file                      :                 F             |
 |  Write xyz WF centres to file              :                 F             |
 |  Write on-site energies <0n|H|0n> to file  :                 F             |
 |  Use guiding centre to control phases      :                 F             |
 |  Use phases for initial projections        :                 F             |
 *----------------------------------------------------------------------------*
 *-------------------------------- PLOTTING ----------------------------------*
 |  Plotting interpolated bandstructure       :                 T             |
 |   Number of K-path sections                :                 7             |
 |   Divisions along first K-path section     :               100             |
 |   Output format                            :           gnuplot             |
 |   Output mode                              :               s-k             |
 *----------------------------------------------------------------------------*
 |   K-space path sections:                                                   |
 |    From: G       0.000  0.000  0.000     To: X       0.000  0.500  0.000   |
 |    From: X       0.000  0.500  0.000     To: M       0.500  0.500  0.000   |
 |    From: M       0.500  0.500  0.000     To: G       0.000  0.000  0.000   |
 |    From: G       0.000  0.000  0.000     To: Z       0.000  0.000  0.500   |
 |    From: Z       0.000  0.000  0.500     To: R       0.000  0.500  0.500   |
 |    From: R       0.000  0.500  0.500     To: A       0.500  0.500  0.500   |
 |    From: A       0.500  0.500  0.500     To: Z       0.000  0.000  0.500   |
 *----------------------------------------------------------------------------*
 |  Plotting Hamiltonian in WF basis          :                 T             |
 *----------------------------------------------------------------------------*

 *---------------------------------- K-MESH ----------------------------------*
 +----------------------------------------------------------------------------+
 |                    Distance to Nearest-Neighbour Shells                    |
 |                    ------------------------------------                    |
 |          Shell             Distance (Ang^-1)          Multiplicity         |
 |          -----             -----------------          ------------         |
 |             1                   0.158280                      2            |
 |             2                   0.223841                      4            |
 |             3                   0.274149                      8            |
 |             4                   0.316560                      6            |
 |             5                   0.353924                      8            |
 |             6                   0.387705                      8            |
 |             7                   0.447683                     12            |
 |             8                   0.474839                     10            |
 |             9                   0.500525                      8            |
 |            10                   0.524955                     24            |
 |            11                   0.548297                      8            |
 |            12                   0.570686                      8            |
 |            13                   0.592229                     16            |
 |            14                   0.633119                      6            |
 |            15                   0.652604                     16            |
 |            16                   0.671524                     12            |
 |            17                   0.689926                     24            |
 |            18                   0.707849                     24            |
 |            19                   0.725329                     16            |
 |            20                   0.742398                      8            |
 |            21                   0.775409                     24            |
 |            22                   0.791399                     10            |
 |            23                   0.807072                     24            |
 |            24                   0.822446                     32            |
 |            25                   0.852363                     24            |
 |            26                   0.866934                     16            |
 |            27                   0.895366                     12            |
 |            28                   0.909248                     16            |
 |            29                   0.922922                     16            |
 |            30                   0.936396                     48            |
 |            31                   0.949679                     30            |
 |            32                   0.962779                      8            |
 |            33                   0.975702                     24            |
 |            34                   1.001049                     24            |
 |            35                   1.013485                     32            |
 |            36                   1.025770                     16            |
 +----------------------------------------------------------------------------+
 | The b-vectors are chosen automatically                                     |
 | Shell:  1 w_b   19.9580947      (Ang^2)                                    |
 | Shell:  1 w_b   19.9580947      (Ang^2)                                    |
 | Shell:  2 w_b    9.9790432      (Ang^2)                                    |
 | The following shells are used:   1,  2                 |
 +----------------------------------------------------------------------------+
 |                        Shell   # Nearest-Neighbours                        |
 |                        -----   --------------------                        |
 |                          1               2                                 |
 |                          2               4                                 |
 +----------------------------------------------------------------------------+
 | Completeness relation is fully satisfied [Eq. (B1), PRB 56, 12847 (1997)]  |
 +----------------------------------------------------------------------------+
 |                  b_k Vectors (Ang^-1) and Weights (Ang^2)                  |
 |                  ----------------------------------------                  |
 |            No.         b_k(x)      b_k(y)      b_k(z)        w_b           |
 |            ---        --------------------------------     --------        |
 |             1         0.000000    0.000000    0.158280    19.958095        |
 |             2         0.000000    0.000000   -0.158280    19.958095        |
 |             3         0.000000    0.223841    0.000000     9.979043        |
 |             4         0.223841    0.000000    0.000000     9.979043        |
 |             5         0.000000   -0.223841    0.000000     9.979043        |
 |             6        -0.223841    0.000000    0.000000     9.979043        |
 +----------------------------------------------------------------------------+
 |                           b_k Directions (Ang^-1)                          |
 |                           -----------------------                          |
 |            No.           x           y           z                         |
 |            ---        --------------------------------                     |
 |             1         0.000000    0.000000    0.158280                     |
 |             2         0.000000    0.223841    0.000000                     |
 |             3         0.223841    0.000000    0.000000                     |
 +----------------------------------------------------------------------------+
  
 Starting a new Wannier90 calculation ...


 Reading overlaps from smo.mmn    :  Created on 29Nov2025 at 20:40: 6

 Reading projections from smo.amn :  Created on 29Nov2025 at 20:39:48

 *------------------------------- WANNIERISE ---------------------------------*
 +--------------------------------------------------------------------+<-- CONV
 | Iter  Delta Spread     RMS Gradient      Spread (Ang^2)      Time  |<-- CONV
 +--------------------------------------------------------------------+<-- CONV

 ------------------------------------------------------------------------------
 Initial State
  WF centre and spread    1  (  0.000267,  0.001517, -0.004781 )     3.18926187
  WF centre and spread    2  (  0.000549,  0.000132, -0.002070 )     3.16971634
  WF centre and spread    3  ( -0.000013,  0.000002, -0.000003 )     1.42585549
  WF centre and spread    4  ( -0.000824,  0.001938,  3.965854 )     3.13128897
  WF centre and spread    5  (  0.000312,  0.001621,  3.967925 )     3.12692134
  WF centre and spread    6  (  0.000007,  0.000008,  3.969658 )     1.42190702
  WF centre and spread    7  (  2.805061,  2.807926,  3.967697 )     3.11251430
  WF centre and spread    8  (  2.809180,  2.806789,  3.969589 )     3.15826122
  WF centre and spread    9  (  2.806969,  2.806994,  3.969691 )     1.42256833
  WF centre and spread   10  (  2.808704,  2.806242, -0.002649 )     3.20064909
  WF centre and spread   11  (  2.805501,  2.807906,  0.000106 )     3.20334553
  WF centre and spread   12  (  2.806981,  2.806960,  0.000003 )     1.42439313
  WF centre and spread   13  (  0.006189,  0.045335, -0.093014 )    31.35573774
  WF centre and spread   14  (  0.042951, -0.060290, -0.000649 )    35.98565915
  WF centre and spread   15  ( -0.008513,  0.049368,  3.903580 )    30.49074377
  WF centre and spread   16  (  0.029897,  0.002317,  3.910784 )    34.95321274
  WF centre and spread   17  (  2.813699,  2.819751,  3.998278 )    30.73250218
  WF centre and spread   18  (  2.770460,  2.836517,  3.890007 )    34.58211222
  WF centre and spread   19  (  2.801179,  2.822747, -0.018679 )    31.99353632
  WF centre and spread   20  (  2.829974,  2.782037, -0.024335 )    36.42230146
  WF centre and spread   21  (  1.403502,  4.210463,  0.203910 )     1.16459996
  WF centre and spread   22  (  1.402484,  4.211767,  0.191760 )     6.61633944
  WF centre and spread   23  (  1.398905,  4.208082,  0.180244 )     6.61076528
  WF centre and spread   24  (  1.403496,  1.403519, -0.203897 )     1.16465852
  WF centre and spread   25  (  1.404600,  1.398220, -0.203250 )     6.72494364
  WF centre and spread   26  (  1.403557,  1.398542, -0.191816 )     6.71013540
  WF centre and spread   27  (  4.210488,  1.403556,  4.171101 )     1.16373811
  WF centre and spread   28  (  4.216654,  1.405866,  4.163411 )     6.40799720
  WF centre and spread   29  (  4.213299,  1.403469,  4.156709 )     6.40340591
  WF centre and spread   30  (  4.210522,  4.210538,  3.768082 )     1.16284564
  WF centre and spread   31  (  4.203351,  4.209317,  3.763822 )     6.38209362
  WF centre and spread   32  (  4.201563,  4.212086,  3.771542 )     6.39361111
  WF centre and spread   33  (  4.210445,  1.403491, -0.203791 )     1.16361438
  WF centre and spread   34  (  4.213070,  1.397817, -0.194471 )     6.80187972
  WF centre and spread   35  (  4.216023,  1.401077, -0.181905 )     6.76063294
  WF centre and spread   36  (  4.210448,  4.210460,  0.203964 )     1.16463401
  WF centre and spread   37  (  4.218374,  4.210118,  0.181156 )     6.73859706
  WF centre and spread   38  (  4.219613,  4.209587,  0.168119 )     6.71994863
  WF centre and spread   39  (  1.403494,  4.210459,  3.768010 )     1.16210627
  WF centre and spread   40  (  1.406288,  4.211728,  3.771833 )     6.47267732
  WF centre and spread   41  (  1.408140,  4.212569,  3.780204 )     6.46973671
  WF centre and spread   42  (  1.403455,  1.403458,  4.171043 )     1.16307246
  WF centre and spread   43  (  1.402733,  1.413182,  4.154215 )     6.31699603
  WF centre and spread   44  (  1.407069,  1.408973,  4.146989 )     6.35198007
  WF centre and spread   45  ( -0.000275,  0.251926,  1.931030 )    10.52824459
  WF centre and spread   46  ( -0.000074,  0.252430,  1.984882 )     1.14658606
  WF centre and spread   47  ( -0.000013,  0.305453,  1.984862 )     1.19515500
  WF centre and spread   48  (  0.000633, -0.226590,  5.960266 )    10.48139292
  WF centre and spread   49  ( -0.000115, -0.252298,  5.954442 )     1.14824633
  WF centre and spread   50  ( -0.000026, -0.305301,  5.954430 )     1.19649655
  WF centre and spread   51  (  2.806900,  3.048475,  5.972705 )    10.62131920
  WF centre and spread   52  (  2.807064,  3.059300,  5.954470 )     1.14823005
  WF centre and spread   53  (  2.807009,  3.112322,  5.954594 )     1.19778773
  WF centre and spread   54  (  2.806776,  2.573115,  1.959237 )    10.73123900
  WF centre and spread   55  (  2.807091,  2.554518,  1.984853 )     1.14695822
  WF centre and spread   56  (  2.806945,  2.501448,  1.984720 )     1.19644530
  Sum of centres and spreads (112.362017,112.388957,134.484466 )   463.43159858

      0     0.463E+03     0.0000000000      463.4315985803       0.00  <-- CONV
        O_D=      5.3777923 O_OD=    300.7402306 O_TOT=    463.4315986 <-- SPRD
 ------------------------------------------------------------------------------
 Cycle:      1
  WF centre and spread    1  ( -0.000015,  0.000527, -0.005261 )     2.55087706
  WF centre and spread    2  (  0.000550,  0.000204, -0.001406 )     2.51831107
  WF centre and spread    3  (  0.000142,  0.000073, -0.000393 )     1.42413859
  WF centre and spread    4  (  0.000696,  0.001674,  3.965336 )     2.51305097
  WF centre and spread    5  ( -0.000268,  0.000895,  3.969294 )     2.54943822
  WF centre and spread    6  ( -0.000047,  0.000122,  3.969583 )     1.40264165
  WF centre and spread    7  (  2.805274,  2.806733,  3.968210 )     2.53727178
  WF centre and spread    8  (  2.807131,  2.808132,  3.969570 )     2.56904247
  WF centre and spread    9  (  2.806816,  2.807008,  3.969708 )     1.42442722
  WF centre and spread   10  (  2.807875,  2.805426, -0.002768 )     2.56003015
  WF centre and spread   11  (  2.805417,  2.807923,  0.000853 )     2.54141913
  WF centre and spread   12  (  2.807111,  2.807018,  0.000046 )     1.42812294
  WF centre and spread   13  (  0.001208,  0.023784, -0.148698 )    31.98321860
  WF centre and spread   14  (  0.100557, -0.064068, -0.033587 )    42.13107995
  WF centre and spread   15  (  0.019253, -0.017313,  3.853093 )    31.64197359
  WF centre and spread   16  (  0.084717, -0.021551,  4.047370 )    39.45438383
  WF centre and spread   17  (  2.747060,  2.787158,  3.978876 )    33.08199936
  WF centre and spread   18  (  2.783269,  2.814729,  3.991951 )    37.65806190
  WF centre and spread   19  (  2.788282,  2.770940, -0.094764 )    34.14822540
  WF centre and spread   20  (  2.772984,  2.797432, -0.062019 )    42.11717310
  WF centre and spread   21  (  1.403434,  4.210555,  0.207294 )     1.20201685
  WF centre and spread   22  (  1.399268,  4.215285,  0.199820 )     4.51700833
  WF centre and spread   23  (  1.396194,  4.210677,  0.187635 )     4.50250337
  WF centre and spread   24  (  1.403441,  1.403508, -0.208335 )     1.20073394
  WF centre and spread   25  (  1.403649,  1.398198, -0.197676 )     4.53334461
  WF centre and spread   26  (  1.404353,  1.396086, -0.185344 )     4.54827835
  WF centre and spread   27  (  4.210479,  1.403500,  4.173432 )     1.20414900
  WF centre and spread   28  (  4.213280,  1.407850,  4.164945 )     4.61336643
  WF centre and spread   29  (  4.207461,  1.406164,  4.158692 )     4.56507669
  WF centre and spread   30  (  4.210457,  4.210351,  3.765313 )     1.20193181
  WF centre and spread   31  (  4.209078,  4.204017,  3.766952 )     4.60248937
  WF centre and spread   32  (  4.204777,  4.209873,  3.776478 )     4.53276116
  WF centre and spread   33  (  4.210518,  1.403533, -0.207797 )     1.20314664
  WF centre and spread   34  (  4.213576,  1.396248, -0.188086 )     4.50684862
  WF centre and spread   35  (  4.218276,  1.401423, -0.174155 )     4.49669713
  WF centre and spread   36  (  4.210522,  4.210496,  0.207259 )     1.20124149
  WF centre and spread   37  (  4.216645,  4.207812,  0.187877 )     4.59908551
  WF centre and spread   38  (  4.217329,  4.208661,  0.174750 )     4.58945041
  WF centre and spread   39  (  1.403500,  4.210429,  3.764688 )     1.20138798
  WF centre and spread   40  (  1.403792,  4.210857,  3.778758 )     4.63555531
  WF centre and spread   41  (  1.405050,  4.213501,  3.791766 )     4.50552053
  WF centre and spread   42  (  1.403489,  1.403459,  4.174220 )     1.19815125
  WF centre and spread   43  (  1.401606,  1.411577,  4.155848 )     4.50845821
  WF centre and spread   44  (  1.409302,  1.401374,  4.146554 )     4.46037789
  WF centre and spread   45  ( -0.001776,  0.248014,  1.928421 )     8.06950824
  WF centre and spread   46  ( -0.000055,  0.254066,  1.985447 )     1.14910978
  WF centre and spread   47  ( -0.000038,  0.307171,  1.984677 )     1.20610765
  WF centre and spread   48  (  0.000175, -0.236411,  5.959856 )     8.07523925
  WF centre and spread   49  ( -0.000403, -0.254023,  5.954136 )     1.14734001
  WF centre and spread   50  (  0.000080, -0.307302,  5.954322 )     1.20255795
  WF centre and spread   51  (  2.803954,  3.047728,  5.973289 )     8.31534253
  WF centre and spread   52  (  2.807114,  3.060928,  5.953970 )     1.14985444
  WF centre and spread   53  (  2.807012,  3.114154,  5.954663 )     1.19942306
  WF centre and spread   54  (  2.799887,  2.569526,  1.946783 )     8.34178486
  WF centre and spread   55  (  2.807296,  2.552738,  1.985217 )     1.14468147
  WF centre and spread   56  (  2.806970,  2.499272,  1.984703 )     1.20692516
  Sum of centres and spreads (112.347705,112.148139,134.521363 )   442.77234227

      1    -0.207E+02    11.6090395188      442.7723422691       0.10  <-- CONV
        O_D=     28.0409659 O_OD=    257.4178007 O_TOT=    442.7723423 <-- SPRD
 Delta: O_D=  0.2266317E+02 O_OD= -0.4332243E+02 O_TOT= -0.2065926E+02 <-- DLTA
 ------------------------------------------------------------------------------
 Cycle:    200
  WF centre and spread    1  (  0.000421,  0.000280, -0.001794 )     1.39234708
  WF centre and spread    2  ( -0.001303,  0.000388, -0.002951 )     1.40423048
  WF centre and spread    3  (  0.000455,  0.000348, -0.000382 )     1.32635890
  WF centre and spread    4  (  0.000113,  0.002185,  3.969944 )     1.39557404
  WF centre and spread    5  (  0.000025,  0.001120,  3.969954 )     1.39637270
  WF centre and spread    6  ( -0.000804, -0.000364,  3.969731 )     1.32003152
  WF centre and spread    7  (  2.806468,  2.807958,  3.970425 )     1.40119752
  WF centre and spread    8  (  2.807236,  2.808511,  3.969188 )     1.40053014
  WF centre and spread    9  (  2.807395,  2.805324,  3.970465 )     1.32562755
  WF centre and spread   10  (  2.808684,  2.806079,  0.003270 )     1.41040302
  WF centre and spread   11  (  2.806250,  2.806291,  0.002048 )     1.40256727
  WF centre and spread   12  (  2.807322,  2.806785, -0.000258 )     1.32601287
  WF centre and spread   13  ( -0.153675,  1.253007, -1.191726 )    21.74715390
  WF centre and spread   14  ( -0.658626, -0.181433,  0.735301 )    31.07437018
  WF centre and spread   15  ( -0.019682,  0.598312,  3.674124 )    20.60830793
  WF centre and spread   16  (  0.227081,  0.714209,  4.012236 )    18.31847396
  WF centre and spread   17  (  2.801846,  3.068015,  4.352360 )    28.01788505
  WF centre and spread   18  (  2.982760,  3.664129,  3.669672 )    21.13902108
  WF centre and spread   19  (  2.967270,  3.111961,  0.431367 )    28.42029750
  WF centre and spread   20  (  2.638503,  2.961507,  0.011114 )    20.41735338
  WF centre and spread   21  (  1.403393,  4.210469,  0.204854 )     1.08363650
  WF centre and spread   22  (  1.377853,  4.225552,  0.177294 )     1.36106251
  WF centre and spread   23  (  1.395445,  4.233764,  0.175756 )     1.33432500
  WF centre and spread   24  (  1.403359,  1.403279, -0.210622 )     1.09139275
  WF centre and spread   25  (  1.406704,  1.394037, -0.176773 )     1.34908005
  WF centre and spread   26  (  1.391834,  1.399554, -0.173589 )     1.34620035
  WF centre and spread   27  (  4.210948,  1.403874,  4.172702 )     1.05422010
  WF centre and spread   28  (  4.207272,  1.416505,  4.146962 )     1.31749426
  WF centre and spread   29  (  4.198958,  1.412796,  4.146043 )     1.33219893
  WF centre and spread   30  (  4.210262,  4.210669,  3.765223 )     1.06243160
  WF centre and spread   31  (  4.206490,  4.201097,  3.791458 )     1.35863244
  WF centre and spread   32  (  4.198476,  4.211271,  3.792059 )     1.35116297
  WF centre and spread   33  (  4.210548,  1.403517, -0.209864 )     1.09698719
  WF centre and spread   34  (  4.214713,  1.383370, -0.178288 )     1.35002504
  WF centre and spread   35  (  4.228935,  1.395322, -0.175438 )     1.32292942
  WF centre and spread   36  (  4.210517,  4.210435,  0.205981 )     1.08106838
  WF centre and spread   37  (  4.223319,  4.215568,  0.177847 )     1.35083383
  WF centre and spread   38  (  4.212105,  4.224147,  0.176771 )     1.33141217
  WF centre and spread   39  (  1.404033,  4.210681,  3.766580 )     1.05554176
  WF centre and spread   40  (  1.413924,  4.206345,  3.792546 )     1.33191225
  WF centre and spread   41  (  1.413904,  4.213044,  3.793033 )     1.34314141
  WF centre and spread   42  (  1.403119,  1.403714,  4.175977 )     1.06381228
  WF centre and spread   43  (  1.404800,  1.424555,  4.146519 )     1.31771373
  WF centre and spread   44  (  1.421488,  1.409548,  4.146117 )     1.32761248
  WF centre and spread   45  ( -0.000118,  0.229623,  1.933439 )     1.69994974
  WF centre and spread   46  ( -0.002818,  0.257247,  1.984921 )     1.04641939
  WF centre and spread   47  (  0.000288,  0.306912,  1.984811 )     1.06694663
  WF centre and spread   48  ( -0.003817, -0.204886,  5.975540 )     1.73693855
  WF centre and spread   49  ( -0.002579, -0.253123,  5.954265 )     1.05119521
  WF centre and spread   50  (  0.000301, -0.308639,  5.954246 )     1.07718229
  WF centre and spread   51  (  2.805192,  3.033865,  5.975281 )     1.77500038
  WF centre and spread   52  (  2.809589,  3.061806,  5.953979 )     1.04046968
  WF centre and spread   53  (  2.807865,  3.110912,  5.954388 )     1.06519103
  WF centre and spread   54  (  2.808989,  2.586938,  1.954137 )     1.76720405
  WF centre and spread   55  (  2.803315,  2.551943,  1.985145 )     1.04615265
  WF centre and spread   56  (  2.807302,  2.499717,  1.984713 )     1.07108624
  Sum of centres and spreads (111.833649,116.330041,134.738099 )   251.70267929

    200     0.136E-02     6.6615226231      251.7026792937      18.56  <-- CONV
        O_D=      2.9237202 O_OD=     91.4653834 O_TOT=    251.7026793 <-- SPRD
 Delta: O_D=  0.8086025E-02 O_OD= -0.6725577E-02 O_TOT=  0.1360447E-02 <-- DLTA
 ------------------------------------------------------------------------------
 Cycle:    400
  WF centre and spread    1  (  0.000488,  0.000049, -0.001450 )     1.38329969
  WF centre and spread    2  ( -0.000852,  0.000091, -0.002353 )     1.38754771
  WF centre and spread    3  (  0.000584,  0.000289, -0.000379 )     1.32738170
  WF centre and spread    4  (  0.000172,  0.001609,  3.970075 )     1.38459582
  WF centre and spread    5  ( -0.000106,  0.000725,  3.969902 )     1.38427023
  WF centre and spread    6  ( -0.000875, -0.000535,  3.969621 )     1.32238748
  WF centre and spread    7  (  2.806679,  2.807614,  3.970130 )     1.38977151
  WF centre and spread    8  (  2.807064,  2.808034,  3.969150 )     1.38638852
  WF centre and spread    9  (  2.807296,  2.805109,  3.970465 )     1.32718116
  WF centre and spread   10  (  2.808264,  2.805838,  0.002478 )     1.39411215
  WF centre and spread   11  (  2.806491,  2.805891,  0.001642 )     1.38677112
  WF centre and spread   12  (  2.807354,  2.806663, -0.000290 )     1.32772186
  WF centre and spread   13  ( -0.134145,  1.452346, -1.343099 )    21.21079426
  WF centre and spread   14  ( -0.999515, -0.287008,  0.739732 )    34.91574312
  WF centre and spread   15  ( -0.006259,  0.485098,  3.810310 )    19.56903032
  WF centre and spread   16  (  0.218749,  0.693242,  3.979438 )    17.87435871
  WF centre and spread   17  (  2.811648,  2.946244,  4.392917 )    27.21345470
  WF centre and spread   18  (  2.953469,  3.821927,  3.600616 )    22.37774491
  WF centre and spread   19  (  2.989976,  3.023746,  0.469364 )    31.03663247
  WF centre and spread   20  (  2.669513,  2.913565,  0.009485 )    18.90865585
  WF centre and spread   21  (  1.403516,  4.210480,  0.204100 )     1.08375522
  WF centre and spread   22  (  1.377749,  4.225539,  0.177338 )     1.34971357
  WF centre and spread   23  (  1.396746,  4.235038,  0.175795 )     1.32958519
  WF centre and spread   24  (  1.403364,  1.403383, -0.209939 )     1.08939678
  WF centre and spread   25  (  1.408202,  1.392947, -0.175813 )     1.36346786
  WF centre and spread   26  (  1.390876,  1.400132, -0.173485 )     1.34320612
  WF centre and spread   27  (  4.211082,  1.403849,  4.172677 )     1.05218831
  WF centre and spread   28  (  4.204339,  1.417230,  4.146756 )     1.28748747
  WF centre and spread   29  (  4.195973,  1.413898,  4.145985 )     1.29818903
  WF centre and spread   30  (  4.210249,  4.210533,  3.766235 )     1.05948264
  WF centre and spread   31  (  4.204244,  4.199499,  3.791986 )     1.33319239
  WF centre and spread   32  (  4.197141,  4.208780,  3.791968 )     1.32213956
  WF centre and spread   33  (  4.210610,  1.403483, -0.209227 )     1.09431742
  WF centre and spread   34  (  4.216536,  1.383555, -0.178236 )     1.34400340
  WF centre and spread   35  (  4.229264,  1.393006, -0.175618 )     1.30080967
  WF centre and spread   36  (  4.210486,  4.210518,  0.205157 )     1.08030590
  WF centre and spread   37  (  4.222894,  4.214906,  0.177741 )     1.38502255
  WF centre and spread   38  (  4.211142,  4.223718,  0.176869 )     1.36162652
  WF centre and spread   39  (  1.403943,  4.210538,  3.767508 )     1.05170850
  WF centre and spread   40  (  1.416843,  4.202915,  3.792987 )     1.30314981
  WF centre and spread   41  (  1.415857,  4.210306,  3.792797 )     1.31161357
  WF centre and spread   42  (  1.403031,  1.403633,  4.175551 )     1.06590112
  WF centre and spread   43  (  1.407613,  1.424418,  4.146522 )     1.29347997
  WF centre and spread   44  (  1.422923,  1.410628,  4.146307 )     1.29402340
  WF centre and spread   45  (  0.000607,  0.226641,  1.932570 )     1.62549123
  WF centre and spread   46  ( -0.002595,  0.256770,  1.985044 )     1.05098470
  WF centre and spread   47  (  0.000279,  0.306365,  1.984813 )     1.06516702
  WF centre and spread   48  ( -0.002606, -0.208741,  5.980390 )     1.64952847
  WF centre and spread   49  ( -0.002444, -0.253200,  5.954383 )     1.05292839
  WF centre and spread   50  (  0.000302, -0.308027,  5.954164 )     1.08018828
  WF centre and spread   51  (  2.804914,  3.031099,  5.975842 )     1.66773639
  WF centre and spread   52  (  2.809028,  3.061312,  5.954039 )     1.04765019
  WF centre and spread   53  (  2.807693,  3.110520,  5.954319 )     1.06729269
  WF centre and spread   54  (  2.808820,  2.584561,  1.952076 )     1.69125707
  WF centre and spread   55  (  2.802796,  2.551882,  1.985319 )     1.05012465
  WF centre and spread   56  (  2.807083,  2.499677,  1.984653 )     1.07639421
  Sum of centres and spreads (111.554497,116.162326,134.707330 )   254.43035253

    400     0.171E-02     5.3780779653      254.4303525272      37.02  <-- CONV
        O_D=      7.5167792 O_OD=     89.5999976 O_TOT=    254.4303525 <-- SPRD
 Delta: O_D=  0.1000590E+01 O_OD= -0.9988789E+00 O_TOT=  0.1710741E-02 <-- DLTA
 ------------------------------------------------------------------------------
 Cycle:    600
  WF centre and spread    1  (  0.000522,  0.000028, -0.001308 )     1.37288266
  WF centre and spread    2  ( -0.000601, -0.000070, -0.001958 )     1.37811724
  WF centre and spread    3  (  0.000666,  0.000245, -0.000337 )     1.32532600
  WF centre and spread    4  (  0.000211,  0.001322,  3.970095 )     1.37624419
  WF centre and spread    5  ( -0.000120,  0.000500,  3.969869 )     1.37708398
  WF centre and spread    6  ( -0.000850, -0.000641,  3.969576 )     1.32189605
  WF centre and spread    7  (  2.806768,  2.807447,  3.969838 )     1.37900713
  WF centre and spread    8  (  2.807054,  2.807732,  3.969169 )     1.37578735
  WF centre and spread    9  (  2.807278,  2.805021,  3.970471 )     1.32624578
  WF centre and spread   10  (  2.808066,  2.805709,  0.002157 )     1.38239082
  WF centre and spread   11  (  2.806709,  2.805729,  0.001329 )     1.37551922
  WF centre and spread   12  (  2.807473,  2.806539, -0.000317 )     1.32550290
  WF centre and spread   13  ( -0.121143,  1.567996, -1.412644 )    20.50497028
  WF centre and spread   14  ( -0.833180, -0.286457,  0.745453 )    30.97367354
  WF centre and spread   15  ( -0.003525,  0.402602,  3.908647 )    18.65752756
  WF centre and spread   16  (  0.221802,  0.655461,  3.958923 )    17.18810234
  WF centre and spread   17  (  2.823679,  2.892400,  4.434099 )    26.31760587
  WF centre and spread   18  (  2.938472,  3.913166,  3.530303 )    22.18411825
  WF centre and spread   19  (  2.952541,  2.888589,  0.563729 )    29.60768359
  WF centre and spread   20  (  2.682203,  2.886315,  0.012127 )    17.75392425
  WF centre and spread   21  (  1.403616,  4.210498,  0.203473 )     1.08251386
  WF centre and spread   22  (  1.378224,  4.225726,  0.177206 )     1.31677016
  WF centre and spread   23  (  1.397216,  4.235038,  0.175792 )     1.31088895
  WF centre and spread   24  (  1.403352,  1.403398, -0.209670 )     1.08655812
  WF centre and spread   25  (  1.409092,  1.392188, -0.175853 )     1.32332937
  WF centre and spread   26  (  1.390512,  1.399897, -0.173785 )     1.31628896
  WF centre and spread   27  (  4.211115,  1.403825,  4.172785 )     1.05086460
  WF centre and spread   28  (  4.202241,  1.417866,  4.146592 )     1.26585360
  WF centre and spread   29  (  4.194006,  1.414653,  4.145969 )     1.28003180
  WF centre and spread   30  (  4.210220,  4.210484,  3.766710 )     1.05408601
  WF centre and spread   31  (  4.202452,  4.198330,  3.791927 )     1.31372529
  WF centre and spread   32  (  4.196446,  4.207197,  3.791925 )     1.29896918
  WF centre and spread   33  (  4.210639,  1.403441, -0.208998 )     1.09081899
  WF centre and spread   34  (  4.217093,  1.383794, -0.177933 )     1.31419221
  WF centre and spread   35  (  4.228900,  1.391796, -0.175528 )     1.28201977
  WF centre and spread   36  (  4.210447,  4.210492,  0.204493 )     1.07669172
  WF centre and spread   37  (  4.222374,  4.214103,  0.178090 )     1.32782928
  WF centre and spread   38  (  4.210617,  4.223688,  0.177027 )     1.31296439
  WF centre and spread   39  (  1.403915,  4.210519,  3.768150 )     1.04804419
  WF centre and spread   40  (  1.418827,  4.200703,  3.792967 )     1.28326822
  WF centre and spread   41  (  1.417283,  4.207780,  3.792715 )     1.28943552
  WF centre and spread   42  (  1.402993,  1.403622,  4.175468 )     1.05971628
  WF centre and spread   43  (  1.409627,  1.424404,  4.146467 )     1.27183111
  WF centre and spread   44  (  1.423830,  1.411237,  4.146362 )     1.27643132
  WF centre and spread   45  (  0.000673,  0.225281,  1.931101 )     1.58638421
  WF centre and spread   46  ( -0.002534,  0.256811,  1.984902 )     1.04066248
  WF centre and spread   47  (  0.000213,  0.305826,  1.984763 )     1.06066240
  WF centre and spread   48  ( -0.001828, -0.211003,  5.984655 )     1.60068009
  WF centre and spread   49  ( -0.002323, -0.253109,  5.954328 )     1.04541911
  WF centre and spread   50  (  0.000260, -0.307642,  5.954197 )     1.07559535
  WF centre and spread   51  (  2.805169,  3.029996,  5.978440 )     1.60151355
  WF centre and spread   52  (  2.808783,  3.061483,  5.953977 )     1.03728290
  WF centre and spread   53  (  2.807681,  3.110501,  5.954353 )     1.06258280
  WF centre and spread   54  (  2.808685,  2.583762,  1.949361 )     1.64552070
  WF centre and spread   55  (  2.802726,  2.552257,  1.985195 )     1.04229160
  WF centre and spread   56  (  2.807038,  2.499709,  1.984549 )     1.07104622
  Sum of centres and spreads (111.713608,116.018184,134.791391 )   243.70637331

    600    -0.163E-01    10.1152959970      243.7063733075      55.23  <-- CONV
        O_D=      2.2199464 O_OD=     84.1728512 O_TOT=    243.7063733 <-- SPRD
 Delta: O_D=  0.4209485E-02 O_OD= -0.2054830E-01 O_TOT= -0.1633881E-01 <-- DLTA
 ------------------------------------------------------------------------------
 Cycle:    800
  WF centre and spread    1  (  0.000500,  0.000010, -0.001231 )     1.36986432
  WF centre and spread    2  ( -0.000502, -0.000123, -0.001732 )     1.37433142
  WF centre and spread    3  (  0.000675,  0.000204, -0.000296 )     1.32512637
  WF centre and spread    4  (  0.000219,  0.001194,  3.970089 )     1.37346355
  WF centre and spread    5  ( -0.000133,  0.000413,  3.969874 )     1.37439466
  WF centre and spread    6  ( -0.000834, -0.000679,  3.969551 )     1.32232468
  WF centre and spread    7  (  2.806824,  2.807389,  3.969722 )     1.37588706
  WF centre and spread    8  (  2.807033,  2.807612,  3.969179 )     1.37245901
  WF centre and spread    9  (  2.807257,  2.805008,  3.970468 )     1.32630550
  WF centre and spread   10  (  2.807952,  2.805684,  0.001988 )     1.37847550
  WF centre and spread   11  (  2.806788,  2.805698,  0.001177 )     1.37176641
  WF centre and spread   12  (  2.807495,  2.806490, -0.000322 )     1.32539338
  WF centre and spread   13  ( -0.118655,  1.628438, -1.437221 )    20.26391085
  WF centre and spread   14  ( -0.833794, -0.291290,  0.744264 )    30.71436300
  WF centre and spread   15  ( -0.003199,  0.356317,  3.948656 )    18.24604851
  WF centre and spread   16  (  0.222002,  0.632437,  3.956673 )    16.95673609
  WF centre and spread   17  (  2.833197,  2.875071,  4.450406 )    26.13505506
  WF centre and spread   18  (  2.917102,  3.963131,  3.505216 )    22.15543755
  WF centre and spread   19  (  2.952723,  2.875360,  0.583143 )    29.88706640
  WF centre and spread   20  (  2.691757,  2.880896,  0.008341 )    17.34684407
  WF centre and spread   21  (  1.403654,  4.210501,  0.203131 )     1.08212660
  WF centre and spread   22  (  1.378515,  4.225901,  0.177101 )     1.30787746
  WF centre and spread   23  (  1.397271,  4.235093,  0.175780 )     1.30580848
  WF centre and spread   24  (  1.403339,  1.403411, -0.209520 )     1.08561010
  WF centre and spread   25  (  1.409539,  1.391830, -0.175847 )     1.31816949
  WF centre and spread   26  (  1.390355,  1.399708, -0.173843 )     1.31223988
  WF centre and spread   27  (  4.211126,  1.403803,  4.172876 )     1.05044129
  WF centre and spread   28  (  4.201054,  1.418239,  4.146589 )     1.25861883
  WF centre and spread   29  (  4.192922,  1.415122,  4.146028 )     1.27313717
  WF centre and spread   30  (  4.210221,  4.210465,  3.766955 )     1.05278868
  WF centre and spread   31  (  4.201523,  4.197604,  3.791935 )     1.30788536
  WF centre and spread   32  (  4.195947,  4.206282,  3.791926 )     1.29210563
  WF centre and spread   33  (  4.210656,  1.403429, -0.208929 )     1.08930164
  WF centre and spread   34  (  4.217458,  1.383950, -0.177859 )     1.30713575
  WF centre and spread   35  (  4.228724,  1.391076, -0.175531 )     1.27561131
  WF centre and spread   36  (  4.210431,  4.210492,  0.204142 )     1.07599793
  WF centre and spread   37  (  4.222338,  4.214049,  0.178113 )     1.32052273
  WF centre and spread   38  (  4.210552,  4.223859,  0.177078 )     1.30796084
  WF centre and spread   39  (  1.403905,  4.210519,  3.768501 )     1.04701542
  WF centre and spread   40  (  1.419876,  4.199506,  3.792990 )     1.27778053
  WF centre and spread   41  (  1.418170,  4.206373,  3.792696 )     1.28218764
  WF centre and spread   42  (  1.402988,  1.403608,  4.175413 )     1.05886178
  WF centre and spread   43  (  1.410853,  1.424491,  4.146485 )     1.26416853
  WF centre and spread   44  (  1.424374,  1.411711,  4.146415 )     1.26953601
  WF centre and spread   45  (  0.000647,  0.224704,  1.930060 )     1.57246076
  WF centre and spread   46  ( -0.002499,  0.256730,  1.984843 )     1.03990035
  WF centre and spread   47  (  0.000185,  0.305567,  1.984738 )     1.05983933
  WF centre and spread   48  ( -0.001508, -0.212235,  5.987314 )     1.58146470
  WF centre and spread   49  ( -0.002162, -0.253102,  5.954364 )     1.04416673
  WF centre and spread   50  (  0.000237, -0.307461,  5.954186 )     1.07527780
  WF centre and spread   51  (  2.805419,  3.029727,  5.979685 )     1.57840416
  WF centre and spread   52  (  2.808609,  3.061493,  5.953966 )     1.03655144
  WF centre and spread   53  (  2.807648,  3.110444,  5.954358 )     1.06194818
  WF centre and spread   54  (  2.808597,  2.583495,  1.947849 )     1.62965321
  WF centre and spread   55  (  2.802721,  2.552408,  1.985193 )     1.04156549
  WF centre and spread   56  (  2.807012,  2.499720,  1.984505 )     1.06972846
  Sum of centres and spreads (111.715106,116.011768,134.811630 )   242.00910307

    800    -0.129E-01     4.3838047471      242.0091030667      73.61  <-- CONV
        O_D=      2.0556261 O_OD=     82.6399013 O_TOT=    242.0091031 <-- SPRD
 Delta: O_D= -0.3700903E-02 O_OD= -0.9179342E-02 O_TOT= -0.1288025E-01 <-- DLTA
 ------------------------------------------------------------------------------
 Cycle:   1000
  WF centre and spread    1  (  0.000476, -0.000002, -0.001160 )     1.36802093
  WF centre and spread    2  ( -0.000437, -0.000154, -0.001573 )     1.37191151
  WF centre and spread    3  (  0.000681,  0.000165, -0.000261 )     1.32498610
  WF centre and spread    4  (  0.000221,  0.001099,  3.970090 )     1.37172990
  WF centre and spread    5  ( -0.000143,  0.000360,  3.969877 )     1.37274904
  WF centre and spread    6  ( -0.000818, -0.000706,  3.969533 )     1.32258753
  WF centre and spread    7  (  2.806869,  2.807356,  3.969661 )     1.37407797
  WF centre and spread    8  (  2.807011,  2.807538,  3.969186 )     1.37045750
  WF centre and spread    9  (  2.807246,  2.804995,  3.970468 )     1.32629735
  WF centre and spread   10  (  2.807871,  2.805680,  0.001865 )     1.37580413
  WF centre and spread   11  (  2.806834,  2.805690,  0.001074 )     1.36933537
  WF centre and spread   12  (  2.807510,  2.806449, -0.000327 )     1.32532013
  WF centre and spread   13  ( -0.117734,  1.673480, -1.452338 )    20.10143000
  WF centre and spread   14  ( -0.829985, -0.291954,  0.730956 )    30.63244881
  WF centre and spread   15  ( -0.002249,  0.322442,  3.974825 )    17.96618357
  WF centre and spread   16  (  0.220640,  0.614074,  3.956097 )    16.78752104
  WF centre and spread   17  (  2.840162,  2.865472,  4.462598 )    26.07329841
  WF centre and spread   18  (  2.900505,  4.002429,  3.483410 )    22.15200609
  WF centre and spread   19  (  2.966653,  2.827091,  0.589086 )    30.06424924
  WF centre and spread   20  (  2.697423,  2.876680,  0.006437 )    17.10486183
  WF centre and spread   21  (  1.403676,  4.210506,  0.202879 )     1.08174780
  WF centre and spread   22  (  1.378755,  4.226070,  0.177028 )     1.30249439
  WF centre and spread   23  (  1.397251,  4.235121,  0.175769 )     1.30338729
  WF centre and spread   24  (  1.403329,  1.403423, -0.209422 )     1.08485947
  WF centre and spread   25  (  1.409925,  1.391641, -0.175836 )     1.31401211
  WF centre and spread   26  (  1.390325,  1.399600, -0.173883 )     1.30833810
  WF centre and spread   27  (  4.211129,  1.403779,  4.172933 )     1.05022556
  WF centre and spread   28  (  4.200117,  1.418569,  4.146612 )     1.25419676
  WF centre and spread   29  (  4.192079,  1.415523,  4.146095 )     1.26884895
  WF centre and spread   30  (  4.210225,  4.210455,  3.767145 )     1.05204682
  WF centre and spread   31  (  4.200850,  4.197060,  3.791951 )     1.30421802
  WF centre and spread   32  (  4.195550,  4.205586,  3.791921 )     1.28784878
  WF centre and spread   33  (  4.210671,  1.403420, -0.208889 )     1.08811569
  WF centre and spread   34  (  4.217697,  1.384090, -0.177799 )     1.30259516
  WF centre and spread   35  (  4.228532,  1.390554, -0.175539 )     1.27194535
  WF centre and spread   36  (  4.210423,  4.210495,  0.203885 )     1.07550527
  WF centre and spread   37  (  4.222238,  4.214006,  0.178106 )     1.31609257
  WF centre and spread   38  (  4.210512,  4.223855,  0.177073 )     1.30563317
  WF centre and spread   39  (  1.403890,  4.210523,  3.768765 )     1.04655179
  WF centre and spread   40  (  1.420645,  4.198599,  3.793007 )     1.27450005
  WF centre and spread   41  (  1.418838,  4.205291,  3.792669 )     1.27786964
  WF centre and spread   42  (  1.402988,  1.403587,  4.175402 )     1.05837152
  WF centre and spread   43  (  1.411830,  1.424593,  4.146513 )     1.25882773
  WF centre and spread   44  (  1.424825,  1.412083,  4.146458 )     1.26486555
  WF centre and spread   45  (  0.000632,  0.224353,  1.929183 )     1.56375796
  WF centre and spread   46  ( -0.002454,  0.256639,  1.984816 )     1.03943291
  WF centre and spread   47  (  0.000161,  0.305372,  1.984723 )     1.05921468
  WF centre and spread   48  ( -0.001293, -0.213168,  5.989446 )     1.56886726
  WF centre and spread   49  ( -0.002048, -0.253117,  5.954389 )     1.04332733
  WF centre and spread   50  (  0.000217, -0.307325,  5.954184 )     1.07509850
  WF centre and spread   51  (  2.805569,  3.029523,  5.980628 )     1.56153153
  WF centre and spread   52  (  2.808505,  3.061494,  5.953977 )     1.03625391
  WF centre and spread   53  (  2.807626,  3.110429,  5.954367 )     1.06145958
  WF centre and spread   54  (  2.808511,  2.583329,  1.946630 )     1.61718973
  WF centre and spread   55  (  2.802728,  2.552509,  1.985190 )     1.04134558
  WF centre and spread   56  (  2.807004,  2.499730,  1.984488 )     1.06900565
  Sum of centres and spreads (111.730190,115.976377,134.804365 )   241.04485858

   1000    -0.209E-01     3.8627216802      241.0448585832      91.83  <-- CONV
        O_D=      2.0010127 O_OD=     81.7302702 O_TOT=    241.0448586 <-- SPRD
 Delta: O_D= -0.6565008E-02 O_OD= -0.1435042E-01 O_TOT= -0.2091543E-01 <-- DLTA
 ------------------------------------------------------------------------------
 Cycle:   1200
  WF centre and spread    1  (  0.000444, -0.000013, -0.001097 )     1.36643783
  WF centre and spread    2  ( -0.000378, -0.000177, -0.001417 )     1.36958343
  WF centre and spread    3  (  0.000660,  0.000126, -0.000226 )     1.32487653
  WF centre and spread    4  (  0.000219,  0.001011,  3.970082 )     1.37010615
  WF centre and spread    5  ( -0.000152,  0.000315,  3.969872 )     1.37115512
  WF centre and spread    6  ( -0.000819, -0.000728,  3.969522 )     1.32295665
  WF centre and spread    7  (  2.806906,  2.807324,  3.969606 )     1.37249581
  WF centre and spread    8  (  2.806995,  2.807470,  3.969193 )     1.36870507
  WF centre and spread    9  (  2.807217,  2.804995,  3.970468 )     1.32634982
  WF centre and spread   10  (  2.807796,  2.805689,  0.001740 )     1.37345513
  WF centre and spread   11  (  2.806872,  2.805689,  0.000977 )     1.36721800
  WF centre and spread   12  (  2.807496,  2.806415, -0.000331 )     1.32536340
  WF centre and spread   13  ( -0.116888,  1.717806, -1.463327 )    19.95021240
  WF centre and spread   14  ( -0.839196, -0.322298,  0.712449 )    30.62073576
  WF centre and spread   15  ( -0.001098,  0.290313,  3.997535 )    17.72317583
  WF centre and spread   16  (  0.218037,  0.594859,  3.956254 )    16.62465951
  WF centre and spread   17  (  2.846514,  2.859198,  4.473265 )    26.08543671
  WF centre and spread   18  (  2.884421,  4.043153,  3.463325 )    22.12623617
  WF centre and spread   19  (  2.941327,  2.810264,  0.580791 )    30.45858609
  WF centre and spread   20  (  2.703247,  2.869387,  0.005021 )    16.87626371
  WF centre and spread   21  (  1.403700,  4.210506,  0.202633 )     1.08134529
  WF centre and spread   22  (  1.378995,  4.226214,  0.176972 )     1.29816311
  WF centre and spread   23  (  1.397213,  4.235107,  0.175771 )     1.30077385
  WF centre and spread   24  (  1.403322,  1.403436, -0.209346 )     1.08401321
  WF centre and spread   25  (  1.410395,  1.391564, -0.175836 )     1.31284147
  WF centre and spread   26  (  1.390372,  1.399519, -0.173913 )     1.30620982
  WF centre and spread   27  (  4.211125,  1.403763,  4.172997 )     1.05010704
  WF centre and spread   28  (  4.199177,  1.418915,  4.146645 )     1.25073689
  WF centre and spread   29  (  4.191237,  1.415936,  4.146180 )     1.26520686
  WF centre and spread   30  (  4.210220,  4.210441,  3.767347 )     1.05150773
  WF centre and spread   31  (  4.200203,  4.196535,  3.791961 )     1.30130906
  WF centre and spread   32  (  4.195138,  4.204893,  3.791914 )     1.28451235
  WF centre and spread   33  (  4.210684,  1.403418, -0.208856 )     1.08687190
  WF centre and spread   34  (  4.217931,  1.384241, -0.177763 )     1.29929269
  WF centre and spread   35  (  4.228331,  1.389989, -0.175553 )     1.26869670
  WF centre and spread   36  (  4.210411,  4.210494,  0.203654 )     1.07495698
  WF centre and spread   37  (  4.222047,  4.213919,  0.178099 )     1.31388838
  WF centre and spread   38  (  4.210423,  4.223780,  0.177094 )     1.30366027
  WF centre and spread   39  (  1.403880,  4.210522,  3.769023 )     1.04612975
  WF centre and spread   40  (  1.421405,  4.197728,  3.793018 )     1.27202775
  WF centre and spread   41  (  1.419509,  4.204237,  3.792654 )     1.27412615
  WF centre and spread   42  (  1.402990,  1.403577,  4.175396 )     1.05796237
  WF centre and spread   43  (  1.412833,  1.424722,  4.146549 )     1.25453689
  WF centre and spread   44  (  1.425283,  1.412487,  4.146502 )     1.26103655
  WF centre and spread   45  (  0.000613,  0.224077,  1.928273 )     1.55672923
  WF centre and spread   46  ( -0.002407,  0.256528,  1.984785 )     1.03909881
  WF centre and spread   47  (  0.000144,  0.305199,  1.984710 )     1.05877394
  WF centre and spread   48  ( -0.001107, -0.214065,  5.991616 )     1.55825057
  WF centre and spread   49  ( -0.001936, -0.253142,  5.954429 )     1.04259975
  WF centre and spread   50  (  0.000199, -0.307189,  5.954184 )     1.07501603
  WF centre and spread   51  (  2.805701,  3.029384,  5.981483 )     1.54700797
  WF centre and spread   52  (  2.808398,  3.061489,  5.953985 )     1.03612073
  WF centre and spread   53  (  2.807603,  3.110408,  5.954379 )     1.06116948
  WF centre and spread   54  (  2.808439,  2.583227,  1.945555 )     1.60615145
  WF centre and spread   55  (  2.802736,  2.552602,  1.985201 )     1.04117428
  WF centre and spread   56  (  2.807005,  2.499738,  1.984470 )     1.06862973
  Sum of centres and spreads (111.691832,115.944995,134.779911 )   240.51464412

   1200    -0.301E-01    18.6361048723      240.5146441168     110.51  <-- CONV
        O_D=      2.1707777 O_OD=     81.0302907 O_TOT=    240.5146441 <-- SPRD
 Delta: O_D= -0.4296978E-01 O_OD=  0.1282209E-01 O_TOT= -0.3014769E-01 <-- DLTA
 ------------------------------------------------------------------------------
 Cycle:   1400
  WF centre and spread    1  (  0.000418, -0.000017, -0.001033 )     1.36516342
  WF centre and spread    2  ( -0.000331, -0.000188, -0.001280 )     1.36785263
  WF centre and spread    3  (  0.000657,  0.000094, -0.000194 )     1.32484347
  WF centre and spread    4  (  0.000217,  0.000937,  3.970080 )     1.36885676
  WF centre and spread    5  ( -0.000159,  0.000280,  3.969873 )     1.36995014
  WF centre and spread    6  ( -0.000809, -0.000740,  3.969517 )     1.32329861
  WF centre and spread    7  (  2.806934,  2.807303,  3.969569 )     1.37132850
  WF centre and spread    8  (  2.806991,  2.807416,  3.969201 )     1.36743534
  WF centre and spread    9  (  2.807202,  2.805004,  3.970469 )     1.32641108
  WF centre and spread   10  (  2.807730,  2.805706,  0.001648 )     1.37158948
  WF centre and spread   11  (  2.806901,  2.805701,  0.000903 )     1.36555852
  WF centre and spread   12  (  2.807493,  2.806394, -0.000335 )     1.32557984
  WF centre and spread   13  ( -0.115739,  1.756019, -1.473331 )    19.83246525
  WF centre and spread   14  ( -0.843564, -0.328649,  0.720645 )    30.57368438
  WF centre and spread   15  (  0.000519,  0.263659,  4.013678 )    17.50840747
  WF centre and spread   16  (  0.217096,  0.576288,  3.957005 )    16.46488886
  WF centre and spread   17  (  2.850248,  2.857615,  4.485294 )    26.12185775
  WF centre and spread   18  (  2.865581,  4.080851,  3.445953 )    22.13484893
  WF centre and spread   19  (  2.966444,  2.823833,  0.607687 )    30.63934276
  WF centre and spread   20  (  2.709108,  2.863423,  0.006779 )    16.76687170
  WF centre and spread   21  (  1.403718,  4.210502,  0.202432 )     1.08072029
  WF centre and spread   22  (  1.379238,  4.226397,  0.176922 )     1.29445966
  WF centre and spread   23  (  1.397141,  4.235074,  0.175780 )     1.29953144
  WF centre and spread   24  (  1.403316,  1.403450, -0.209289 )     1.08311442
  WF centre and spread   25  (  1.410729,  1.391459, -0.175838 )     1.31216485
  WF centre and spread   26  (  1.390429,  1.399403, -0.173951 )     1.30643479
  WF centre and spread   27  (  4.211121,  1.403748,  4.173027 )     1.05008868
  WF centre and spread   28  (  4.198338,  1.419241,  4.146680 )     1.24834385
  WF centre and spread   29  (  4.190494,  1.416344,  4.146262 )     1.26327412
  WF centre and spread   30  (  4.210220,  4.210438,  3.767530 )     1.05124121
  WF centre and spread   31  (  4.199658,  4.196085,  3.791971 )     1.29893327
  WF centre and spread   32  (  4.194766,  4.204288,  3.791922 )     1.28244767
  WF centre and spread   33  (  4.210698,  1.403414, -0.208834 )     1.08567549
  WF centre and spread   34  (  4.218131,  1.384396, -0.177741 )     1.29694748
  WF centre and spread   35  (  4.228132,  1.389512, -0.175561 )     1.26746290
  WF centre and spread   36  (  4.210402,  4.210496,  0.203447 )     1.07438102
  WF centre and spread   37  (  4.222046,  4.213981,  0.178084 )     1.31196625
  WF centre and spread   38  (  4.210475,  4.223902,  0.177143 )     1.30364628
  WF centre and spread   39  (  1.403871,  4.210526,  3.769254 )     1.04593292
  WF centre and spread   40  (  1.422050,  4.196971,  3.793020 )     1.27024580
  WF centre and spread   41  (  1.420128,  4.203363,  3.792625 )     1.27179857
  WF centre and spread   42  (  1.402992,  1.403568,  4.175401 )     1.05774135
  WF centre and spread   43  (  1.413798,  1.424873,  4.146604 )     1.25118072
  WF centre and spread   44  (  1.425720,  1.412930,  4.146558 )     1.25866548
  WF centre and spread   45  (  0.000599,  0.223878,  1.927368 )     1.55126929
  WF centre and spread   46  ( -0.002375,  0.256419,  1.984764 )     1.03883612
  WF centre and spread   47  (  0.000121,  0.305044,  1.984697 )     1.05862877
  WF centre and spread   48  ( -0.000944, -0.214826,  5.993628 )     1.55004071
  WF centre and spread   49  ( -0.001848, -0.253153,  5.954457 )     1.04206826
  WF centre and spread   50  (  0.000176, -0.307071,  5.954189 )     1.07525967
  WF centre and spread   51  (  2.805819,  3.029344,  5.982162 )     1.53553976
  WF centre and spread   52  (  2.808311,  3.061471,  5.953996 )     1.03591327
  WF centre and spread   53  (  2.807584,  3.110370,  5.954382 )     1.06117122
  WF centre and spread   54  (  2.808362,  2.583195,  1.944761 )     1.59683750
  WF centre and spread   55  (  2.802744,  2.552660,  1.985205 )     1.04091489
  WF centre and spread   56  (  2.807017,  2.499758,  1.984454 )     1.06827454
  Sum of centres and spreads (111.706112,115.972379,134.819640 )   240.01138742

   1400    -0.225E-01    12.1899521964      240.0113874223     128.71  <-- CONV
        O_D=      2.1231124 O_OD=     80.5746993 O_TOT=    240.0113874 <-- SPRD
 Delta: O_D= -0.2130792E-01 O_OD= -0.1180328E-02 O_TOT= -0.2248825E-01 <-- DLTA
 ------------------------------------------------------------------------------
 Cycle:   1600
  WF centre and spread    1  (  0.000384, -0.000021, -0.000960 )     1.36427564
  WF centre and spread    2  ( -0.000281, -0.000194, -0.001138 )     1.36667054
  WF centre and spread    3  (  0.000654,  0.000053, -0.000160 )     1.32502101
  WF centre and spread    4  (  0.000211,  0.000863,  3.970081 )     1.36804963
  WF centre and spread    5  ( -0.000165,  0.000248,  3.969872 )     1.36910803
  WF centre and spread    6  ( -0.000783, -0.000764,  3.969504 )     1.32377405
  WF centre and spread    7  (  2.806966,  2.807281,  3.969545 )     1.37041871
  WF centre and spread    8  (  2.806970,  2.807367,  3.969212 )     1.36656138
  WF centre and spread    9  (  2.807200,  2.805004,  3.970467 )     1.32656811
  WF centre and spread   10  (  2.807663,  2.805727,  0.001543 )     1.37007539
  WF centre and spread   11  (  2.806930,  2.805710,  0.000826 )     1.36438915
  WF centre and spread   12  (  2.807498,  2.806353, -0.000347 )     1.32576361
  WF centre and spread   13  ( -0.115259,  1.798500, -1.477396 )    19.68046088
  WF centre and spread   14  ( -0.822346, -0.299640,  0.694527 )    30.50913802
  WF centre and spread   15  (  0.001609,  0.234684,  4.030504 )    17.30855450
  WF centre and spread   16  (  0.210718,  0.553807,  3.957798 )    16.27534832
  WF centre and spread   17  (  2.853659,  2.854799,  4.496692 )    26.18209033
  WF centre and spread   18  (  2.852643,  4.115647,  3.422280 )    22.10318354
  WF centre and spread   19  (  2.985309,  2.742548,  0.602173 )    30.63049276
  WF centre and spread   20  (  2.712485,  2.863487,  0.003360 )    16.45240587
  WF centre and spread   21  (  1.403731,  4.210503,  0.202216 )     1.08028044
  WF centre and spread   22  (  1.379480,  4.226585,  0.176868 )     1.29045527
  WF centre and spread   23  (  1.396986,  4.235179,  0.175766 )     1.29526091
  WF centre and spread   24  (  1.403310,  1.403462, -0.209224 )     1.08233320
  WF centre and spread   25  (  1.411127,  1.391314, -0.175873 )     1.30904172
  WF centre and spread   26  (  1.390420,  1.399176, -0.174001 )     1.30107303
  WF centre and spread   27  (  4.211115,  1.403726,  4.173076 )     1.05017596
  WF centre and spread   28  (  4.197392,  1.419636,  4.146730 )     1.24601695
  WF centre and spread   29  (  4.189659,  1.416796,  4.146367 )     1.26021431
  WF centre and spread   30  (  4.210218,  4.210427,  3.767734 )     1.05103079
  WF centre and spread   31  (  4.199024,  4.195584,  3.791984 )     1.29683851
  WF centre and spread   32  (  4.194320,  4.203612,  3.791901 )     1.27926971
[...]
  WF centre and spread   13  ( -0.035268,  2.279940, -1.182080 )    18.68328656
  WF centre and spread   14  ( -1.059063, -0.477055,  0.381858 )    27.32234903
  WF centre and spread   15  (  0.015471,  0.017563,  4.133872 )    16.30881924
  WF centre and spread   16  (  0.049339,  0.097411,  3.968836 )    11.30510793
  WF centre and spread   17  (  2.882241,  2.896100,  4.607950 )    28.66669987
  WF centre and spread   18  (  2.627721,  4.897830,  3.287778 )    19.80367536
  WF centre and spread   19  (  2.910475,  2.209523,  0.627249 )    33.25479827
  WF centre and spread   20  (  2.711178,  2.895085, -0.003105 )    15.80315801
  WF centre and spread   21  (  1.403664,  4.210512,  0.203137 )     1.06596185
  WF centre and spread   22  (  1.386532,  4.228378,  0.177082 )     1.25757031
  WF centre and spread   23  (  1.396414,  4.232793,  0.176251 )     1.26410281
  WF centre and spread   24  (  1.403148,  1.403510, -0.207460 )     1.06455882
  WF centre and spread   25  (  1.421891,  1.400094, -0.177418 )     1.29703899
  WF centre and spread   26  (  1.401879,  1.403922, -0.175973 )     1.27829887
  WF centre and spread   27  (  4.210718,  1.403483,  4.171867 )     1.04911825
  WF centre and spread   28  (  4.172835,  1.436668,  4.147470 )     1.31398834
  WF centre and spread   29  (  4.168305,  1.436269,  4.148031 )     1.32200913
  WF centre and spread   30  (  4.210193,  4.210404,  3.770116 )     1.05022141
  WF centre and spread   31  (  4.182653,  4.180880,  3.792103 )     1.31294105
  WF centre and spread   32  (  4.177348,  4.185703,  3.791564 )     1.30432878
  WF centre and spread   33  (  4.210729,  1.403506, -0.207007 )     1.06352353
  WF centre and spread   34  (  4.218976,  1.386659, -0.178183 )     1.27190617
  WF centre and spread   35  (  4.221589,  1.383880, -0.177268 )     1.25893802
  WF centre and spread   36  (  4.210255,  4.210397,  0.203002 )     1.06275797
  WF centre and spread   37  (  4.212027,  4.208728,  0.178005 )     1.25279957
  WF centre and spread   38  (  4.204962,  4.218017,  0.177833 )     1.25759770
  WF centre and spread   39  (  1.403671,  4.210539,  3.770803 )     1.04813051
  WF centre and spread   40  (  1.439537,  4.177262,  3.792494 )     1.31230975
  WF centre and spread   41  (  1.439552,  4.181955,  3.791853 )     1.30735752
  WF centre and spread   42  (  1.403246,  1.403419,  4.172773 )     1.05055780
  WF centre and spread   43  (  1.442279,  1.441156,  4.147655 )     1.31233623
  WF centre and spread   44  (  1.445536,  1.433169,  4.147817 )     1.31361602
  WF centre and spread   45  (  0.000658,  0.226359,  1.900861 )     1.63248698
  WF centre and spread   46  ( -0.001010,  0.254431,  1.984413 )     1.03601190
  WF centre and spread   47  ( -0.000305,  0.302648,  1.984633 )     1.05745770
  WF centre and spread   48  ( -0.000368, -0.225205,  6.043126 )     1.64721491
  WF centre and spread   49  ( -0.000087, -0.252635,  5.954738 )     1.03673851
  WF centre and spread   50  (  0.000311, -0.303843,  5.954484 )     1.06568682
  WF centre and spread   51  (  2.806816,  3.031018,  5.970086 )     1.38364919
  WF centre and spread   52  (  2.807284,  3.060959,  5.954199 )     1.03854303
  WF centre and spread   53  (  2.807396,  3.110423,  5.954384 )     1.05671826
  WF centre and spread   54  (  2.807579,  2.583201,  1.961224 )     1.43143684
  WF centre and spread   55  (  2.804441,  2.552323,  1.984770 )     1.03518945
  WF centre and spread   56  (  2.807282,  2.499690,  1.984259 )     1.06042153
  Sum of centres and spreads (111.172154,115.885469,134.908700 )   230.91655254

   9600    -0.836E-01     8.1162332018      230.9165525435     881.37  <-- CONV
        O_D=      1.3422019 O_OD=     72.2607749 O_TOT=    230.9165525 <-- SPRD
 Delta: O_D= -0.7981448E-01 O_OD= -0.3797891E-02 O_TOT= -0.8361237E-01 <-- DLTA
 ------------------------------------------------------------------------------
 Cycle:   9800
  WF centre and spread    1  ( -0.000071,  0.000188,  0.000012 )     1.35736678
  WF centre and spread    2  (  0.000037,  0.000235,  0.000212 )     1.35785750
  WF centre and spread    3  (  0.000418, -0.000227,  0.000228 )     1.32749184
  WF centre and spread    4  (  0.000118,  0.000292,  3.969545 )     1.35982524
  WF centre and spread    5  ( -0.000038,  0.000056,  3.969561 )     1.36051467
  WF centre and spread    6  ( -0.000541, -0.000711,  3.969588 )     1.33094100
  WF centre and spread    7  (  2.806756,  2.806970,  3.969697 )     1.36249834
  WF centre and spread    8  (  2.807088,  2.806947,  3.969435 )     1.35969029
  WF centre and spread    9  (  2.807194,  2.805700,  3.970201 )     1.32638576
  WF centre and spread   10  (  2.807014,  2.806653,  0.000260 )     1.35691078
  WF centre and spread   11  (  2.807061,  2.806391,  0.000340 )     1.35762436
  WF centre and spread   12  (  2.807099,  2.805936, -0.000545 )     1.32991195
  WF centre and spread   13  ( -0.034963,  2.285304, -1.172486 )    18.67817377
  WF centre and spread   14  ( -1.053847, -0.470489,  0.359597 )    27.16202069
  WF centre and spread   15  (  0.015852,  0.017266,  4.135267 )    16.31663736
  WF centre and spread   16  (  0.048708,  0.095091,  3.969065 )    11.27196652
  WF centre and spread   17  (  2.880806,  2.896100,  4.603912 )    28.64584211
  WF centre and spread   18  (  2.624271,  4.904048,  3.297473 )    19.77496429
  WF centre and spread   19  (  2.885785,  2.201881,  0.608883 )    33.21299915
  WF centre and spread   20  (  2.715844,  2.889364, -0.003546 )    15.81560599
  WF centre and spread   21  (  1.403671,  4.210507,  0.203148 )     1.06536547
  WF centre and spread   22  (  1.386731,  4.228321,  0.177084 )     1.25645462
  WF centre and spread   23  (  1.396501,  4.232680,  0.176259 )     1.26298125
  WF centre and spread   24  (  1.403149,  1.403511, -0.207432 )     1.06390958
  WF centre and spread   25  (  1.422042,  1.400242, -0.177473 )     1.29342569
  WF centre and spread   26  (  1.402126,  1.404044, -0.176020 )     1.27689671
  WF centre and spread   27  (  4.210706,  1.403489,  4.171862 )     1.04859291
  WF centre and spread   28  (  4.172589,  1.436917,  4.147486 )     1.31486858
  WF centre and spread   29  (  4.168079,  1.436524,  4.148047 )     1.32290743
  WF centre and spread   30  (  4.210187,  4.210405,  3.770113 )     1.04961236
  WF centre and spread   31  (  4.182359,  4.180670,  3.792107 )     1.31348883
  WF centre and spread   32  (  4.177086,  4.185438,  3.791569 )     1.30461009
  WF centre and spread   33  (  4.210730,  1.403505, -0.206981 )     1.06300262
  WF centre and spread   34  (  4.218938,  1.386712, -0.178181 )     1.27071540
  WF centre and spread   35  (  4.221491,  1.383869, -0.177287 )     1.25804211
  WF centre and spread   36  (  4.210254,  4.210396,  0.202995 )     1.06242517
  WF centre and spread   37  (  4.211855,  4.208637,  0.177995 )     1.25130958
  WF centre and spread   38  (  4.204821,  4.217777,  0.177835 )     1.25593017
  WF centre and spread   39  (  1.403680,  4.210531,  3.770758 )     1.04773079
  WF centre and spread   40  (  1.439759,  4.177023,  3.792490 )     1.31288635
  WF centre and spread   41  (  1.439837,  4.181699,  3.791848 )     1.30819194
  WF centre and spread   42  (  1.403256,  1.403424,  4.172738 )     1.05011965
  WF centre and spread   43  (  1.442565,  1.441377,  4.147685 )     1.31332747
  WF centre and spread   44  (  1.445752,  1.433409,  4.147834 )     1.31426665
  WF centre and spread   45  (  0.000668,  0.226414,  1.900737 )     1.63109000
  WF centre and spread   46  ( -0.001000,  0.254396,  1.984400 )     1.03508535
  WF centre and spread   47  ( -0.000300,  0.302614,  1.984627 )     1.05686237
  WF centre and spread   48  ( -0.000365, -0.225249,  6.043439 )     1.64603892
  WF centre and spread   49  ( -0.000061, -0.252662,  5.954736 )     1.03593627
  WF centre and spread   50  (  0.000326, -0.303796,  5.954496 )     1.06496736
  WF centre and spread   51  (  2.806809,  3.031064,  5.969709 )     1.38279396
  WF centre and spread   52  (  2.807280,  3.060975,  5.954185 )     1.03742704
  WF centre and spread   53  (  2.807382,  3.110474,  5.954384 )     1.05635876
  WF centre and spread   54  (  2.807575,  2.583184,  1.961646 )     1.42977613
  WF centre and spread   55  (  2.804482,  2.552348,  1.984762 )     1.03429423
  WF centre and spread   56  (  2.807260,  2.499693,  1.984256 )     1.05998473
  Sum of centres and spreads (111.152813,115.887558,134.884554 )   230.61690495

   9800    -0.986E-02     2.4102927332      230.6169049509     899.55  <-- CONV
        O_D=      1.2198715 O_OD=     72.0834577 O_TOT=    230.6169050 <-- SPRD
 Delta: O_D= -0.2084704E-03 O_OD= -0.9655677E-02 O_TOT= -0.9864148E-02 <-- DLTA
 ------------------------------------------------------------------------------
 Cycle:  10000
  WF centre and spread    1  ( -0.000077,  0.000184,  0.000011 )     1.35773007
  WF centre and spread    2  (  0.000034,  0.000238,  0.000217 )     1.35864599
  WF centre and spread    3  (  0.000408, -0.000222,  0.000229 )     1.32806400
  WF centre and spread    4  (  0.000113,  0.000287,  3.969542 )     1.36035016
  WF centre and spread    5  ( -0.000041,  0.000059,  3.969565 )     1.36096280
  WF centre and spread    6  ( -0.000539, -0.000703,  3.969588 )     1.33153057
  WF centre and spread    7  (  2.806755,  2.806967,  3.969706 )     1.36274429
  WF centre and spread    8  (  2.807083,  2.806948,  3.969442 )     1.36031003
  WF centre and spread    9  (  2.807190,  2.805709,  3.970198 )     1.32690435
  WF centre and spread   10  (  2.807010,  2.806664,  0.000258 )     1.35749956
  WF centre and spread   11  (  2.807056,  2.806406,  0.000337 )     1.35795234
  WF centre and spread   12  (  2.807085,  2.805938, -0.000545 )     1.33059066
  WF centre and spread   13  ( -0.033785,  2.286460, -1.169614 )    18.66726055
  WF centre and spread   14  ( -1.050874, -0.478028,  0.358927 )    27.12649571
  WF centre and spread   15  (  0.015620,  0.016880,  4.136565 )    16.33137670
  WF centre and spread   16  (  0.047096,  0.092338,  3.969148 )    11.24741956
  WF centre and spread   17  (  2.878471,  2.890410,  4.598171 )    28.68252544
  WF centre and spread   18  (  2.617446,  4.913469,  3.300077 )    19.76648082
  WF centre and spread   19  (  2.874616,  2.183652,  0.609230 )    33.24769389
  WF centre and spread   20  (  2.715270,  2.889469, -0.004135 )    15.83589206
  WF centre and spread   21  (  1.403667,  4.210509,  0.203223 )     1.06560026
  WF centre and spread   22  (  1.386844,  4.228334,  0.177101 )     1.25685499
  WF centre and spread   23  (  1.396509,  4.232636,  0.176270 )     1.26326217
  WF centre and spread   24  (  1.403153,  1.403511, -0.207416 )     1.06422277
  WF centre and spread   25  (  1.422211,  1.400421, -0.177494 )     1.29387327
  WF centre and spread   26  (  1.402374,  1.404136, -0.176058 )     1.27662610
  WF centre and spread   27  (  4.210700,  1.403487,  4.171830 )     1.04883594
  WF centre and spread   28  (  4.172267,  1.437175,  4.147505 )     1.31691272
  WF centre and spread   29  (  4.167807,  1.436809,  4.148053 )     1.32507401
  WF centre and spread   30  (  4.210188,  4.210402,  3.770137 )     1.04995012
  WF centre and spread   31  (  4.182075,  4.180412,  3.792111 )     1.31453319
  WF centre and spread   32  (  4.176769,  4.185118,  3.791586 )     1.30634029
  WF centre and spread   33  (  4.210728,  1.403502, -0.206971 )     1.06324566
  WF centre and spread   34  (  4.218972,  1.386687, -0.178204 )     1.27107534
  WF centre and spread   35  (  4.221454,  1.383845, -0.177313 )     1.25839764
  WF centre and spread   36  (  4.210258,  4.210398,  0.203028 )     1.06267818
  WF centre and spread   37  (  4.211548,  4.208438,  0.177986 )     1.25117677
  WF centre and spread   38  (  4.204630,  4.217586,  0.177844 )     1.25611294
  WF centre and spread   39  (  1.403678,  4.210527,  3.770735 )     1.04799437
  WF centre and spread   40  (  1.440039,  4.176724,  3.792488 )     1.31460165
  WF centre and spread   41  (  1.440130,  4.181436,  3.791844 )     1.30984963
  WF centre and spread   42  (  1.403261,  1.403428,  4.172682 )     1.05029843
  WF centre and spread   43  (  1.442848,  1.441601,  4.147697 )     1.31542502
  WF centre and spread   44  (  1.445985,  1.433673,  4.147856 )     1.31659682
  WF centre and spread   45  (  0.000667,  0.226466,  1.900585 )     1.63457963
  WF centre and spread   46  ( -0.000993,  0.254392,  1.984409 )     1.03570094
  WF centre and spread   47  ( -0.000293,  0.302571,  1.984620 )     1.05708309
  WF centre and spread   48  ( -0.000384, -0.225309,  6.044084 )     1.64968736
  WF centre and spread   49  ( -0.000032, -0.252641,  5.954741 )     1.03656587
  WF centre and spread   50  (  0.000329, -0.303783,  5.954494 )     1.06501976
  WF centre and spread   51  (  2.806810,  3.031119,  5.969368 )     1.38323373
  WF centre and spread   52  (  2.807267,  3.060971,  5.954201 )     1.03818276
  WF centre and spread   53  (  2.807371,  3.110459,  5.954380 )     1.05654894
  WF centre and spread   54  (  2.807567,  2.583142,  1.962116 )     1.42957711
  WF centre and spread   55  (  2.804506,  2.552342,  1.984760 )     1.03478119
  WF centre and spread   56  (  2.807247,  2.499703,  1.984254 )     1.06004599
  Sum of centres and spreads (111.134093,115.863352,134.885448 )   230.67897418

  10000    -0.107E-02     6.5950823335      230.6789741774     917.93  <-- CONV
        O_D=      1.2578507 O_OD=     72.1075478 O_TOT=    230.6789742 <-- SPRD
 Delta: O_D=  0.1969985E-02 O_OD= -0.3035127E-02 O_TOT= -0.1065142E-02 <-- DLTA
 ------------------------------------------------------------------------------
 Final State
  WF centre and spread    1  ( -0.000077,  0.000184,  0.000011 )     1.35773007
  WF centre and spread    2  (  0.000034,  0.000238,  0.000217 )     1.35864599
  WF centre and spread    3  (  0.000408, -0.000222,  0.000229 )     1.32806400
  WF centre and spread    4  (  0.000113,  0.000287,  3.969542 )     1.36035016
  WF centre and spread    5  ( -0.000041,  0.000059,  3.969565 )     1.36096280
  WF centre and spread    6  ( -0.000539, -0.000703,  3.969588 )     1.33153057
  WF centre and spread    7  (  2.806755,  2.806967,  3.969706 )     1.36274429
  WF centre and spread    8  (  2.807083,  2.806948,  3.969442 )     1.36031003
  WF centre and spread    9  (  2.807190,  2.805709,  3.970198 )     1.32690435
  WF centre and spread   10  (  2.807010,  2.806664,  0.000258 )     1.35749956
  WF centre and spread   11  (  2.807056,  2.806406,  0.000337 )     1.35795234
  WF centre and spread   12  (  2.807085,  2.805938, -0.000545 )     1.33059066
  WF centre and spread   13  ( -0.033785,  2.286460, -1.169614 )    18.66726055
  WF centre and spread   14  ( -1.050874, -0.478028,  0.358927 )    27.12649571
  WF centre and spread   15  (  0.015620,  0.016880,  4.136565 )    16.33137670
  WF centre and spread   16  (  0.047096,  0.092338,  3.969148 )    11.24741956
  WF centre and spread   17  (  2.878471,  2.890410,  4.598171 )    28.68252544
  WF centre and spread   18  (  2.617446,  4.913469,  3.300077 )    19.76648082
  WF centre and spread   19  (  2.874616,  2.183652,  0.609230 )    33.24769389
  WF centre and spread   20  (  2.715270,  2.889469, -0.004135 )    15.83589206
  WF centre and spread   21  (  1.403667,  4.210509,  0.203223 )     1.06560026
  WF centre and spread   22  (  1.386844,  4.228334,  0.177101 )     1.25685499
  WF centre and spread   23  (  1.396509,  4.232636,  0.176270 )     1.26326217
  WF centre and spread   24  (  1.403153,  1.403511, -0.207416 )     1.06422277
  WF centre and spread   25  (  1.422211,  1.400421, -0.177494 )     1.29387327
  WF centre and spread   26  (  1.402374,  1.404136, -0.176058 )     1.27662610
  WF centre and spread   27  (  4.210700,  1.403487,  4.171830 )     1.04883594
  WF centre and spread   28  (  4.172267,  1.437175,  4.147505 )     1.31691272
  WF centre and spread   29  (  4.167807,  1.436809,  4.148053 )     1.32507401
  WF centre and spread   30  (  4.210188,  4.210402,  3.770137 )     1.04995012
  WF centre and spread   31  (  4.182075,  4.180412,  3.792111 )     1.31453319
  WF centre and spread   32  (  4.176769,  4.185118,  3.791586 )     1.30634029
  WF centre and spread   33  (  4.210728,  1.403502, -0.206971 )     1.06324566
  WF centre and spread   34  (  4.218972,  1.386687, -0.178204 )     1.27107534
  WF centre and spread   35  (  4.221454,  1.383845, -0.177313 )     1.25839764
  WF centre and spread   36  (  4.210258,  4.210398,  0.203028 )     1.06267818
  WF centre and spread   37  (  4.211548,  4.208438,  0.177986 )     1.25117677
  WF centre and spread   38  (  4.204630,  4.217586,  0.177844 )     1.25611294
  WF centre and spread   39  (  1.403678,  4.210527,  3.770735 )     1.04799437
  WF centre and spread   40  (  1.440039,  4.176724,  3.792488 )     1.31460165
  WF centre and spread   41  (  1.440130,  4.181436,  3.791844 )     1.30984963
  WF centre and spread   42  (  1.403261,  1.403428,  4.172682 )     1.05029843
  WF centre and spread   43  (  1.442848,  1.441601,  4.147697 )     1.31542502
  WF centre and spread   44  (  1.445985,  1.433673,  4.147856 )     1.31659682
  WF centre and spread   45  (  0.000667,  0.226466,  1.900585 )     1.63457963
  WF centre and spread   46  ( -0.000993,  0.254392,  1.984409 )     1.03570094
  WF centre and spread   47  ( -0.000293,  0.302571,  1.984620 )     1.05708309
  WF centre and spread   48  ( -0.000384, -0.225309,  6.044084 )     1.64968736
  WF centre and spread   49  ( -0.000032, -0.252641,  5.954741 )     1.03656587
  WF centre and spread   50  (  0.000329, -0.303783,  5.954494 )     1.06501976
  WF centre and spread   51  (  2.806810,  3.031119,  5.969368 )     1.38323373
  WF centre and spread   52  (  2.807267,  3.060971,  5.954201 )     1.03818276
  WF centre and spread   53  (  2.807371,  3.110459,  5.954380 )     1.05654894
  WF centre and spread   54  (  2.807567,  2.583142,  1.962116 )     1.42957711
  WF centre and spread   55  (  2.804506,  2.552342,  1.984760 )     1.03478119
  WF centre and spread   56  (  2.807247,  2.499703,  1.984254 )     1.06004599
  Sum of centres and spreads (111.134093,115.863352,134.885448 )   230.67897418

         Spreads (Ang^2)       Omega I      =   157.313575681
        ================       Omega D      =     1.257850714
                               Omega OD     =    72.107547782
    Final Spread (Ang^2)       Omega Total  =   230.678974177
 ------------------------------------------------------------------------------

 Writing checkpoint file smo.chk... done

 *---------------------------------------------------------------------------*
 |                               PLOTTING                                    |
 *---------------------------------------------------------------------------*


 Calculating interpolated band-structure

 Time to calculate interpolated band structure       2.042 (sec)

  
  Omega Invariant:   1-s^2 =   157.313575680 (Ang^2)
                   -2log s =  1203.009933940 (Ang^2)
                    acos^2 =   253.685736835 (Ang^2)

 *===========================================================================*
 |                             TIMING INFORMATION                            |
 *===========================================================================*
 |    Tag                                                Ncalls      Time (s)|
 |---------------------------------------------------------------------------|
 |kmesh: get                                        :         1         0.111|
 |overlap: read                                     :         1         4.398|
 |wann: main                                        :         1       915.694|
 |plot: main                                        :         1         5.995|
 *---------------------------------------------------------------------------*
 All done: wannier90 exiting
