
     Program PWSCF v.7.3 starts on 20Dec2025 at 10:49:46 

     This program is part of the open-source Quantum ESPRESSO suite
     for quantum simulation of materials; please cite
         "P. Giannozzi et al., J. Phys.:Condens. Matter 21 395502 (2009);
         "P. Giannozzi et al., J. Phys.:Condens. Matter 29 465901 (2017);
         "P. Giannozzi et al., J. Chem. Phys. 152 154105 (2020);
          URL http://www.quantum-espresso.org", 
     in publications or presentations arising from this work. More details at
     http://www.quantum-espresso.org/quote

     Parallel version (MPI), running on    32 processors

     MPI processes distributed on     1 nodes
     414156 MiB available memory on the printing compute node when the environment starts

     Reading input from smo.scf.in
Warning: card &CELL ignored
Warning: card / ignored
Warning: card &FCP ignored
Warning: card / ignored
Warning: card &RISM ignored
Warning: card / ignored

     Current dimensions of program PWSCF are:
     Max number of different atomic species (ntypx) = 10
     Max number of k-points (npk) =  40000
     Max angular momentum in pseudopotentials (lmaxx) =  4
     file Sr.pz-spn-kjpaw_psl.1.0.0.UPF: wavefunction(s)  4P renormalized
     file Mo.pz-spn-kjpaw_psl.1.0.0.UPF: wavefunction(s)  4S 4D renormalized
     file O.pz-n-kjpaw_psl.1.0.0.UPF: wavefunction(s)  2S 2P renormalized
     Found identity + (  0.0000  0.0000 -0.5000) symmetry
     This is a supercell, fractional translations are disabled
     Message from routine setup:
     using ibrav=0 with symmetry is DISCOURAGED, use correct ibrav instead

     R & G space division:  proc/nbgrp/npool/nimage =      32
     Subspace diagonalization in iterative solution of the eigenvalue problem:
     a serial algorithm will be used


     Parallelization info
     --------------------
     sticks:   dense  smooth     PW     G-vecs:    dense   smooth      PW
     Min         111      55     15                 6883     2431     355
     Max         112      56     16                 6888     2436     360
     Sum        3569    1781    497               220317    77861   11403

     Using Slab Decomposition



     bravais-lattice index     =            0
     lattice parameter (alat)  =      10.5825  a.u.
     unit-cell volume          =    1629.5338 (a.u.)^3
     number of atoms/cell      =           20
     number of atomic types    =            3
     number of electrons       =       168.00
     number of Kohn-Sham states=          101
     kinetic-energy cutoff     =      50.0000  Ry
     charge density cutoff     =     400.0000  Ry
     scf convergence threshold =      1.0E-09
     mixing beta               =       0.4000
     number of iterations used =            8  plain     mixing
     Exchange-correlation= SLA  PZ   NOGX NOGC
                           (   1   1   0   0   0   0   0)

     celldm(1)=  10.582466  celldm(2)=   0.000000  celldm(3)=   0.000000
     celldm(4)=   0.000000  celldm(5)=   0.000000  celldm(6)=   0.000000

     crystal axes: (cart. coord. in units of alat)
               a(1) = (   1.000000   0.000000   0.000000 )  
               a(2) = (   0.000000   1.000000   0.000000 )  
               a(3) = (   0.000000   0.000000   1.375000 )  

     reciprocal axes: (cart. coord. in units 2 pi/alat)
               b(1) = (  1.000000  0.000000  0.000000 )  
               b(2) = (  0.000000  1.000000  0.000000 )  
               b(3) = (  0.000000  0.000000  0.727273 )  


     PseudoPot. # 1 for Sr read from file:
     ../../pseudo/Sr.pz-spn-kjpaw_psl.1.0.0.UPF
     MD5 check sum: 14b1f655f5497b386c4f305353cf4fd4
     Pseudo is Projector augmented-wave + core cor, Zval = 10.0
     Generated using 'atomic' code by A. Dal Corso  v.7.3
     Shape of augmentation charge: PSQ
     Using radial grid of 1221 points,  6 beta functions with: 
                l(1) =   0
                l(2) =   0
                l(3) =   1
                l(4) =   1
                l(5) =   2
                l(6) =   2
     Q(r) pseudized with 0 coefficients 


     PseudoPot. # 2 for Mo read from file:
     ../../pseudo/Mo.pz-spn-kjpaw_psl.1.0.0.UPF
     MD5 check sum: 2e12aff744a4785a34e7548d4bec1d21
     Pseudo is Projector augmented-wave + core cor, Zval = 14.0
     Generated using 'atomic' code by A. Dal Corso  v.7.3
     Shape of augmentation charge: PSQ
     Using radial grid of 1229 points,  6 beta functions with: 
                l(1) =   0
                l(2) =   0
                l(3) =   1
                l(4) =   1
                l(5) =   2
                l(6) =   2
     Q(r) pseudized with 0 coefficients 


     PseudoPot. # 3 for O  read from file:
     ../../pseudo/O.pz-n-kjpaw_psl.1.0.0.UPF
     MD5 check sum: 71a951e35f67dc87891058fc5642ed8f
     Pseudo is Projector augmented-wave + core cor, Zval =  6.0
     Generated using 'atomic' code by A. Dal Corso  v.7.3
     Shape of augmentation charge: PSQ
     Using radial grid of 1095 points,  4 beta functions with: 
                l(1) =   0
                l(2) =   0
                l(3) =   1
                l(4) =   1
     Q(r) pseudized with 0 coefficients 


     atomic species   valence    mass     pseudopotential
     Sr               10.00    87.62000     Sr( 1.00)
     Mo               14.00    95.95000     Mo( 1.00)
     O                 6.00    15.99900     O ( 1.00)

     16 Sym. Ops., with inversion, found


                                    s                        frac. trans.

      isym =  1     identity                                     

 cryst.   s( 1) = (     1          0          0      )
                  (     0          1          0      )
                  (     0          0          1      )

 cart.    s( 1) = (  1.0000000  0.0000000  0.0000000 )
                  (  0.0000000  1.0000000  0.0000000 )
                  (  0.0000000  0.0000000  1.0000000 )


      isym =  2     180 deg rotation - cart. axis [0,0,1]        

 cryst.   s( 2) = (    -1          0          0      )
                  (     0         -1          0      )
                  (     0          0          1      )

 cart.    s( 2) = ( -1.0000000  0.0000000  0.0000000 )
                  (  0.0000000 -1.0000000  0.0000000 )
                  (  0.0000000  0.0000000  1.0000000 )


      isym =  3     180 deg rotation - cart. axis [0,1,0]        

 cryst.   s( 3) = (    -1          0          0      )
                  (     0          1          0      )
                  (     0          0         -1      )

 cart.    s( 3) = ( -1.0000000  0.0000000  0.0000000 )
                  (  0.0000000  1.0000000  0.0000000 )
                  (  0.0000000  0.0000000 -1.0000000 )


      isym =  4     180 deg rotation - cart. axis [1,0,0]        

 cryst.   s( 4) = (     1          0          0      )
                  (     0         -1          0      )
                  (     0          0         -1      )

 cart.    s( 4) = (  1.0000000  0.0000000  0.0000000 )
                  (  0.0000000 -1.0000000  0.0000000 )
                  (  0.0000000  0.0000000 -1.0000000 )


      isym =  5     180 deg rotation - cart. axis [1,1,0]        

 cryst.   s( 5) = (     0          1          0      )
                  (     1          0          0      )
                  (     0          0         -1      )

 cart.    s( 5) = (  0.0000000  1.0000000  0.0000000 )
                  (  1.0000000  0.0000000  0.0000000 )
                  (  0.0000000  0.0000000 -1.0000000 )


      isym =  6     180 deg rotation - cart. axis [1,-1,0]       

 cryst.   s( 6) = (     0         -1          0      )
                  (    -1          0          0      )
                  (     0          0         -1      )

 cart.    s( 6) = (  0.0000000 -1.0000000  0.0000000 )
                  ( -1.0000000  0.0000000  0.0000000 )
                  (  0.0000000  0.0000000 -1.0000000 )


      isym =  7      90 deg rotation - cart. axis [0,0,-1]       

 cryst.   s( 7) = (     0         -1          0      )
                  (     1          0          0      )
                  (     0          0          1      )

 cart.    s( 7) = (  0.0000000  1.0000000  0.0000000 )
                  ( -1.0000000  0.0000000  0.0000000 )
                  (  0.0000000  0.0000000  1.0000000 )


      isym =  8      90 deg rotation - cart. axis [0,0,1]        

 cryst.   s( 8) = (     0          1          0      )
                  (    -1          0          0      )
                  (     0          0          1      )

 cart.    s( 8) = (  0.0000000 -1.0000000  0.0000000 )
                  (  1.0000000  0.0000000  0.0000000 )
                  (  0.0000000  0.0000000  1.0000000 )


      isym =  9     inversion                                    

 cryst.   s( 9) = (    -1          0          0      )
                  (     0         -1          0      )
                  (     0          0         -1      )

 cart.    s( 9) = ( -1.0000000  0.0000000  0.0000000 )
                  (  0.0000000 -1.0000000  0.0000000 )
                  (  0.0000000  0.0000000 -1.0000000 )


      isym = 10     inv. 180 deg rotation - cart. axis [0,0,1]   

 cryst.   s(10) = (     1          0          0      )
                  (     0          1          0      )
                  (     0          0         -1      )

 cart.    s(10) = (  1.0000000  0.0000000  0.0000000 )
                  (  0.0000000  1.0000000  0.0000000 )
                  (  0.0000000  0.0000000 -1.0000000 )


      isym = 11     inv. 180 deg rotation - cart. axis [0,1,0]   

 cryst.   s(11) = (     1          0          0      )
                  (     0         -1          0      )
                  (     0          0          1      )

 cart.    s(11) = (  1.0000000  0.0000000  0.0000000 )
                  (  0.0000000 -1.0000000  0.0000000 )
                  (  0.0000000  0.0000000  1.0000000 )


      isym = 12     inv. 180 deg rotation - cart. axis [1,0,0]   

 cryst.   s(12) = (    -1          0          0      )
                  (     0          1          0      )
                  (     0          0          1      )

 cart.    s(12) = ( -1.0000000  0.0000000  0.0000000 )
                  (  0.0000000  1.0000000  0.0000000 )
                  (  0.0000000  0.0000000  1.0000000 )


      isym = 13     inv. 180 deg rotation - cart. axis [1,1,0]   

 cryst.   s(13) = (     0         -1          0      )
                  (    -1          0          0      )
                  (     0          0          1      )

 cart.    s(13) = (  0.0000000 -1.0000000  0.0000000 )
                  ( -1.0000000  0.0000000  0.0000000 )
                  (  0.0000000  0.0000000  1.0000000 )


      isym = 14     inv. 180 deg rotation - cart. axis [1,-1,0]  

 cryst.   s(14) = (     0          1          0      )
                  (     1          0          0      )
                  (     0          0          1      )

 cart.    s(14) = (  0.0000000  1.0000000  0.0000000 )
                  (  1.0000000  0.0000000  0.0000000 )
                  (  0.0000000  0.0000000  1.0000000 )


      isym = 15     inv.  90 deg rotation - cart. axis [0,0,-1]  

 cryst.   s(15) = (     0          1          0      )
                  (    -1          0          0      )
                  (     0          0         -1      )

 cart.    s(15) = (  0.0000000 -1.0000000  0.0000000 )
                  (  1.0000000  0.0000000  0.0000000 )
                  (  0.0000000  0.0000000 -1.0000000 )


      isym = 16     inv.  90 deg rotation - cart. axis [0,0,1]   

 cryst.   s(16) = (     0         -1          0      )
                  (     1          0          0      )
                  (     0          0         -1      )

 cart.    s(16) = (  0.0000000  1.0000000  0.0000000 )
                  ( -1.0000000  0.0000000  0.0000000 )
                  (  0.0000000  0.0000000 -1.0000000 )


   Cartesian axes

     site n.     atom                  positions (alat units)
         1        Sr     tau(   1) = (   0.0000000   0.5000000   0.3437500  )
         2        Sr     tau(   2) = (   0.0000000   0.5000000   1.0312500  )
         3        Sr     tau(   3) = (   0.5000000   0.0000000   1.0312500  )
         4        Sr     tau(   4) = (   0.5000000   0.0000000   0.3437500  )
         5        Mo     tau(   5) = (   0.0000000   0.0000000   0.0000000  )
         6        Mo     tau(   6) = (   0.0000000   0.0000000   0.6875000  )
         7        Mo     tau(   7) = (   0.5000000   0.5000000   0.6875000  )
         8        Mo     tau(   8) = (   0.5000000   0.5000000   0.0000000  )
         9        O      tau(   9) = (   0.2500000   0.7500000   0.0000000  )
        10        O      tau(  10) = (   0.2500000   0.2500000   0.0000000  )
        11        O      tau(  11) = (   0.7500000   0.2500000   0.6875000  )
        12        O      tau(  12) = (   0.7500000   0.7500000   0.6875000  )
        13        O      tau(  13) = (   0.7500000   0.2500000   0.0000000  )
        14        O      tau(  14) = (   0.7500000   0.7500000   0.0000000  )
        15        O      tau(  15) = (   0.2500000   0.7500000   0.6875000  )
        16        O      tau(  16) = (   0.2500000   0.2500000   0.6875000  )
        17        O      tau(  17) = (   0.0000000   0.0000000   0.3437500  )
        18        O      tau(  18) = (   0.0000000   0.0000000   1.0312500  )
        19        O      tau(  19) = (   0.5000000   0.5000000   1.0312500  )
        20        O      tau(  20) = (   0.5000000   0.5000000   0.3437500  )

   Crystallographic axes

     site n.     atom                  positions (cryst. coord.)
         1        Sr     tau(   1) = (  0.0000000  0.5000000  0.2500000  )
         2        Sr     tau(   2) = (  0.0000000  0.5000000  0.7500000  )
         3        Sr     tau(   3) = (  0.5000000  0.0000000  0.7500000  )
         4        Sr     tau(   4) = (  0.5000000  0.0000000  0.2500000  )
         5        Mo     tau(   5) = (  0.0000000  0.0000000  0.0000000  )
         6        Mo     tau(   6) = (  0.0000000  0.0000000  0.5000000  )
         7        Mo     tau(   7) = (  0.5000000  0.5000000  0.5000000  )
         8        Mo     tau(   8) = (  0.5000000  0.5000000  0.0000000  )
         9        O      tau(   9) = (  0.2500000  0.7500000  0.0000000  )
        10        O      tau(  10) = (  0.2500000  0.2500000  0.0000000  )
        11        O      tau(  11) = (  0.7500000  0.2500000  0.5000000  )
        12        O      tau(  12) = (  0.7500000  0.7500000  0.5000000  )
        13        O      tau(  13) = (  0.7500000  0.2500000  0.0000000  )
        14        O      tau(  14) = (  0.7500000  0.7500000  0.0000000  )
        15        O      tau(  15) = (  0.2500000  0.7500000  0.5000000  )
        16        O      tau(  16) = (  0.2500000  0.2500000  0.5000000  )
        17        O      tau(  17) = (  0.0000000  0.0000000  0.2500000  )
        18        O      tau(  18) = (  0.0000000  0.0000000  0.7500000  )
        19        O      tau(  19) = (  0.5000000  0.5000000  0.7500000  )
        20        O      tau(  20) = (  0.5000000  0.5000000  0.2500000  )

     number of k points=    18  Fermi-Dirac smearing, width (Ry)=  0.0015
                       cart. coord. in units 2pi/alat
        k(    1) = (   0.0000000   0.0000000   0.0000000), wk =   0.0160000
        k(    2) = (   0.0000000   0.0000000   0.1454545), wk =   0.0320000
        k(    3) = (   0.0000000   0.0000000   0.2909091), wk =   0.0320000
        k(    4) = (   0.0000000   0.2000000   0.0000000), wk =   0.0640000
        k(    5) = (   0.0000000   0.2000000   0.1454545), wk =   0.1280000
        k(    6) = (   0.0000000   0.2000000   0.2909091), wk =   0.1280000
        k(    7) = (   0.0000000   0.4000000   0.0000000), wk =   0.0640000
        k(    8) = (   0.0000000   0.4000000   0.1454545), wk =   0.1280000
        k(    9) = (   0.0000000   0.4000000   0.2909091), wk =   0.1280000
        k(   10) = (   0.2000000   0.2000000   0.0000000), wk =   0.0640000
        k(   11) = (   0.2000000   0.2000000   0.1454545), wk =   0.1280000
        k(   12) = (   0.2000000   0.2000000   0.2909091), wk =   0.1280000
        k(   13) = (   0.2000000   0.4000000   0.0000000), wk =   0.1280000
        k(   14) = (   0.2000000   0.4000000   0.1454545), wk =   0.2560000
        k(   15) = (   0.2000000   0.4000000   0.2909091), wk =   0.2560000
        k(   16) = (   0.4000000   0.4000000   0.0000000), wk =   0.0640000
        k(   17) = (   0.4000000   0.4000000   0.1454545), wk =   0.1280000
        k(   18) = (   0.4000000   0.4000000   0.2909091), wk =   0.1280000

                       cryst. coord.
        k(    1) = (   0.0000000   0.0000000   0.0000000), wk =   0.0160000
        k(    2) = (   0.0000000   0.0000000   0.2000000), wk =   0.0320000
        k(    3) = (   0.0000000   0.0000000   0.4000000), wk =   0.0320000
        k(    4) = (   0.0000000   0.2000000   0.0000000), wk =   0.0640000
        k(    5) = (   0.0000000   0.2000000   0.2000000), wk =   0.1280000
        k(    6) = (   0.0000000   0.2000000   0.4000000), wk =   0.1280000
        k(    7) = (   0.0000000   0.4000000   0.0000000), wk =   0.0640000
        k(    8) = (   0.0000000   0.4000000   0.2000000), wk =   0.1280000
        k(    9) = (   0.0000000   0.4000000   0.4000000), wk =   0.1280000
        k(   10) = (   0.2000000   0.2000000   0.0000000), wk =   0.0640000
        k(   11) = (   0.2000000   0.2000000   0.2000000), wk =   0.1280000
        k(   12) = (   0.2000000   0.2000000   0.4000000), wk =   0.1280000
        k(   13) = (   0.2000000   0.4000000   0.0000000), wk =   0.1280000
        k(   14) = (   0.2000000   0.4000000   0.2000000), wk =   0.2560000
        k(   15) = (   0.2000000   0.4000000   0.4000000), wk =   0.2560000
        k(   16) = (   0.4000000   0.4000000   0.0000000), wk =   0.0640000
        k(   17) = (   0.4000000   0.4000000   0.2000000), wk =   0.1280000
        k(   18) = (   0.4000000   0.4000000   0.4000000), wk =   0.1280000

     Dense  grid:   220317 G-vectors     FFT dimensions: (  72,  72,  96)

     Smooth grid:    77861 G-vectors     FFT dimensions: (  48,  48,  72)

     Dynamical RAM for                 wfc:       0.47 MB

     Dynamical RAM for     wfc (w. buffer):       8.90 MB

     Dynamical RAM for           str. fact:       0.32 MB

     Dynamical RAM for           local pot:       0.00 MB

     Dynamical RAM for          nlocal pot:       1.11 MB

     Dynamical RAM for                qrad:       4.82 MB

     Dynamical RAM for          rho,v,vnew:       0.67 MB

     Dynamical RAM for               rhoin:       0.22 MB

     Dynamical RAM for            rho*nmix:       1.68 MB

     Dynamical RAM for           G-vectors:       0.41 MB

     Dynamical RAM for          h,s,v(r/c):       1.87 MB

     Dynamical RAM for          <psi|beta>:       0.37 MB

     Dynamical RAM for                 psi:       0.94 MB

     Dynamical RAM for                hpsi:       0.94 MB

     Dynamical RAM for                spsi:       0.94 MB

     Dynamical RAM for      wfcinit/wfcrot:       1.44 MB

     Dynamical RAM for           addusdens:      20.81 MB

     Estimated static dynamical RAM per process >      17.47 MB

     Estimated max dynamical RAM per process >      39.96 MB

     Estimated total dynamical RAM >       1.25 GB

     Check: negative core charge=   -0.000003

     Initial potential from superposition of free atoms

     starting charge     167.9716, renormalised to     168.0000
     Starting wfcs are  120 randomized atomic wfcs
     Checking if some PAW data can be deallocated... 
       PAW data deallocated on   24 nodes for type:  1
       PAW data deallocated on   24 nodes for type:  2
       PAW data deallocated on   16 nodes for type:  3

     total cpu time spent up to now is        3.2 secs

     Self-consistent Calculation

     iteration #  1     ecut=    50.00 Ry     beta= 0.40
     Davidson diagonalization with overlap

---- Real-time Memory Report at c_bands before calling an iterative solver
            71 MiB given to the printing process from OS
             0 MiB allocation reported by mallinfo(arena+hblkhd)
        412527 MiB available memory on the node where the printing process lives
------------------
     ethr =  1.00E-02,  avg # of iterations =  2.4

     total cpu time spent up to now is        8.6 secs

     total energy              =   -2921.48690066 Ry
     estimated scf accuracy    <       5.64339810 Ry

     iteration #  2     ecut=    50.00 Ry     beta= 0.40
     Davidson diagonalization with overlap

---- Real-time Memory Report at c_bands before calling an iterative solver
            79 MiB given to the printing process from OS
             0 MiB allocation reported by mallinfo(arena+hblkhd)
        399645 MiB available memory on the node where the printing process lives
------------------
     ethr =  3.36E-03,  avg # of iterations =  4.4

     total cpu time spent up to now is       15.9 secs

     total energy              =   -2923.50155272 Ry
     estimated scf accuracy    <       1.28495155 Ry

     iteration #  3     ecut=    50.00 Ry     beta= 0.40
     Davidson diagonalization with overlap

---- Real-time Memory Report at c_bands before calling an iterative solver
            83 MiB given to the printing process from OS
             0 MiB allocation reported by mallinfo(arena+hblkhd)
        403251 MiB available memory on the node where the printing process lives
------------------
     ethr =  7.65E-04,  avg # of iterations = 10.9

     total cpu time spent up to now is       26.1 secs

     total energy              =   -2923.75543629 Ry
     estimated scf accuracy    <       0.28359404 Ry

     iteration #  4     ecut=    50.00 Ry     beta= 0.40
     Davidson diagonalization with overlap

---- Real-time Memory Report at c_bands before calling an iterative solver
            83 MiB given to the printing process from OS
             0 MiB allocation reported by mallinfo(arena+hblkhd)
        287191 MiB available memory on the node where the printing process lives
------------------
     c_bands:  1 eigenvalues not converged
     c_bands:  2 eigenvalues not converged
     c_bands:  2 eigenvalues not converged
     ethr =  1.69E-04,  avg # of iterations = 13.7

     total cpu time spent up to now is       38.9 secs

     total energy              =   -2923.76919544 Ry
     estimated scf accuracy    <       1.42317711 Ry

     iteration #  5     ecut=    50.00 Ry     beta= 0.40
     Davidson diagonalization with overlap

---- Real-time Memory Report at c_bands before calling an iterative solver
            87 MiB given to the printing process from OS
             0 MiB allocation reported by mallinfo(arena+hblkhd)
         94637 MiB available memory on the node where the printing process lives
------------------
     ethr =  1.69E-04,  avg # of iterations =  1.8

     total cpu time spent up to now is       44.1 secs

     total energy              =   -2923.82668184 Ry
     estimated scf accuracy    <       0.03867832 Ry

     iteration #  6     ecut=    50.00 Ry     beta= 0.40
     Davidson diagonalization with overlap

---- Real-time Memory Report at c_bands before calling an iterative solver
            87 MiB given to the printing process from OS
             0 MiB allocation reported by mallinfo(arena+hblkhd)
        118998 MiB available memory on the node where the printing process lives
------------------
     ethr =  2.30E-05,  avg # of iterations = 11.6

     total cpu time spent up to now is       53.0 secs

     total energy              =   -2923.82159223 Ry
     estimated scf accuracy    <       0.23250500 Ry

     iteration #  7     ecut=    50.00 Ry     beta= 0.40
     Davidson diagonalization with overlap

---- Real-time Memory Report at c_bands before calling an iterative solver
            87 MiB given to the printing process from OS
             0 MiB allocation reported by mallinfo(arena+hblkhd)
        233941 MiB available memory on the node where the printing process lives
------------------
     ethr =  2.30E-05,  avg # of iterations =  2.5

     total cpu time spent up to now is       57.4 secs

     total energy              =   -2923.83496796 Ry
     estimated scf accuracy    <       0.01569802 Ry

     iteration #  8     ecut=    50.00 Ry     beta= 0.40
     Davidson diagonalization with overlap

---- Real-time Memory Report at c_bands before calling an iterative solver
            87 MiB given to the printing process from OS
             0 MiB allocation reported by mallinfo(arena+hblkhd)
        267571 MiB available memory on the node where the printing process lives
------------------
     ethr =  9.34E-06,  avg # of iterations =  4.1

     total cpu time spent up to now is       62.8 secs

     total energy              =   -2923.83556052 Ry
     estimated scf accuracy    <       0.03363279 Ry

     iteration #  9     ecut=    50.00 Ry     beta= 0.40
     Davidson diagonalization with overlap

---- Real-time Memory Report at c_bands before calling an iterative solver
            87 MiB given to the printing process from OS
             0 MiB allocation reported by mallinfo(arena+hblkhd)
        378774 MiB available memory on the node where the printing process lives
------------------
     ethr =  9.34E-06,  avg # of iterations =  1.2

     total cpu time spent up to now is       66.3 secs

     total energy              =   -2923.83617800 Ry
     estimated scf accuracy    <       0.00347628 Ry

     iteration # 10     ecut=    50.00 Ry     beta= 0.40
     Davidson diagonalization with overlap

---- Real-time Memory Report at c_bands before calling an iterative solver
            87 MiB given to the printing process from OS
             0 MiB allocation reported by mallinfo(arena+hblkhd)
        378516 MiB available memory on the node where the printing process lives
------------------
     c_bands:  1 eigenvalues not converged
     c_bands:  1 eigenvalues not converged
     c_bands:  1 eigenvalues not converged
     c_bands:  3 eigenvalues not converged
     c_bands:  1 eigenvalues not converged
     c_bands:  3 eigenvalues not converged
     c_bands:  3 eigenvalues not converged
     c_bands:  1 eigenvalues not converged
     c_bands:  1 eigenvalues not converged
     c_bands:  2 eigenvalues not converged
     ethr =  2.07E-06,  avg # of iterations = 15.7

     total cpu time spent up to now is       77.0 secs

     total energy              =   -2923.83611836 Ry
     estimated scf accuracy    <       0.00075834 Ry

     iteration # 11     ecut=    50.00 Ry     beta= 0.40
     Davidson diagonalization with overlap

---- Real-time Memory Report at c_bands before calling an iterative solver
            87 MiB given to the printing process from OS
             0 MiB allocation reported by mallinfo(arena+hblkhd)
        428741 MiB available memory on the node where the printing process lives
------------------
     c_bands:  1 eigenvalues not converged
     c_bands:  1 eigenvalues not converged
     c_bands:  2 eigenvalues not converged
     ethr =  4.51E-07,  avg # of iterations =  7.4

     total cpu time spent up to now is       86.8 secs

     total energy              =   -2923.83644014 Ry
     estimated scf accuracy    <       0.00020083 Ry

     iteration # 12     ecut=    50.00 Ry     beta= 0.40
     Davidson diagonalization with overlap

---- Real-time Memory Report at c_bands before calling an iterative solver
            87 MiB given to the printing process from OS
             0 MiB allocation reported by mallinfo(arena+hblkhd)
        428762 MiB available memory on the node where the printing process lives
------------------
     ethr =  1.20E-07,  avg # of iterations =  2.7

     total cpu time spent up to now is       92.3 secs

     total energy              =   -2923.83643341 Ry
     estimated scf accuracy    <       0.00004383 Ry

     iteration # 13     ecut=    50.00 Ry     beta= 0.40
     Davidson diagonalization with overlap

---- Real-time Memory Report at c_bands before calling an iterative solver
            87 MiB given to the printing process from OS
             0 MiB allocation reported by mallinfo(arena+hblkhd)
        418567 MiB available memory on the node where the printing process lives
------------------
     ethr =  2.61E-08,  avg # of iterations =  4.7

     total cpu time spent up to now is      100.3 secs

     total energy              =   -2923.83645237 Ry
     estimated scf accuracy    <       0.00000811 Ry

     iteration # 14     ecut=    50.00 Ry     beta= 0.40
     Davidson diagonalization with overlap

---- Real-time Memory Report at c_bands before calling an iterative solver
            87 MiB given to the printing process from OS
             0 MiB allocation reported by mallinfo(arena+hblkhd)
        396603 MiB available memory on the node where the printing process lives
------------------
     ethr =  4.83E-09,  avg # of iterations =  2.9

     total cpu time spent up to now is      105.3 secs

     total energy              =   -2923.83645304 Ry
     estimated scf accuracy    <       0.00000154 Ry

     iteration # 15     ecut=    50.00 Ry     beta= 0.40
     Davidson diagonalization with overlap

---- Real-time Memory Report at c_bands before calling an iterative solver
            87 MiB given to the printing process from OS
             0 MiB allocation reported by mallinfo(arena+hblkhd)
        387498 MiB available memory on the node where the printing process lives
------------------
     ethr =  9.18E-10,  avg # of iterations =  5.1

     total cpu time spent up to now is      111.6 secs

     total energy              =   -2923.83645372 Ry
     estimated scf accuracy    <       0.00000035 Ry

     iteration # 16     ecut=    50.00 Ry     beta= 0.40
     Davidson diagonalization with overlap

---- Real-time Memory Report at c_bands before calling an iterative solver
            87 MiB given to the printing process from OS
             0 MiB allocation reported by mallinfo(arena+hblkhd)
        416191 MiB available memory on the node where the printing process lives
------------------
     ethr =  2.08E-10,  avg # of iterations =  2.3

     total cpu time spent up to now is      115.8 secs

     total energy              =   -2923.83645371 Ry
     estimated scf accuracy    <       0.00000008 Ry

     iteration # 17     ecut=    50.00 Ry     beta= 0.40
     Davidson diagonalization with overlap

---- Real-time Memory Report at c_bands before calling an iterative solver
            87 MiB given to the printing process from OS
             0 MiB allocation reported by mallinfo(arena+hblkhd)
        428835 MiB available memory on the node where the printing process lives
------------------
     ethr =  4.70E-11,  avg # of iterations =  4.7

     total cpu time spent up to now is      121.2 secs

     total energy              =   -2923.83645372 Ry
     estimated scf accuracy    <       0.00000007 Ry

     iteration # 18     ecut=    50.00 Ry     beta= 0.40
     Davidson diagonalization with overlap

---- Real-time Memory Report at c_bands before calling an iterative solver
            87 MiB given to the printing process from OS
             0 MiB allocation reported by mallinfo(arena+hblkhd)
        428741 MiB available memory on the node where the printing process lives
------------------
     ethr =  4.32E-11,  avg # of iterations =  2.1

     total cpu time spent up to now is      125.4 secs

     total energy              =   -2923.83645372 Ry
     estimated scf accuracy    <       0.00000003 Ry

     iteration # 19     ecut=    50.00 Ry     beta= 0.40
     Davidson diagonalization with overlap

---- Real-time Memory Report at c_bands before calling an iterative solver
            87 MiB given to the printing process from OS
             0 MiB allocation reported by mallinfo(arena+hblkhd)
        428676 MiB available memory on the node where the printing process lives
------------------
     ethr =  1.51E-11,  avg # of iterations =  2.2

     total cpu time spent up to now is      129.6 secs

     total energy              =   -2923.83645373 Ry
     estimated scf accuracy    <          8.6E-09 Ry

     iteration # 20     ecut=    50.00 Ry     beta= 0.40
     Davidson diagonalization with overlap

---- Real-time Memory Report at c_bands before calling an iterative solver
            87 MiB given to the printing process from OS
             0 MiB allocation reported by mallinfo(arena+hblkhd)
        420814 MiB available memory on the node where the printing process lives
------------------
     ethr =  5.11E-12,  avg # of iterations =  3.1

     total cpu time spent up to now is      134.0 secs

     total energy              =   -2923.83645373 Ry
     estimated scf accuracy    <          1.1E-09 Ry

     iteration # 21     ecut=    50.00 Ry     beta= 0.40
     Davidson diagonalization with overlap

---- Real-time Memory Report at c_bands before calling an iterative solver
            87 MiB given to the printing process from OS
             0 MiB allocation reported by mallinfo(arena+hblkhd)
        412799 MiB available memory on the node where the printing process lives
------------------
     ethr =  6.36E-13,  avg # of iterations =  5.7

     total cpu time spent up to now is      140.2 secs

     End of self-consistent calculation

          k = 0.0000 0.0000 0.0000 (  9709 PWs)   bands (ev):

   -48.2363 -48.2339 -48.2334 -48.2311 -22.7497 -22.7289 -22.6150 -22.6079
   -22.5489 -22.5489 -22.5424 -22.5424 -22.4665 -22.4665 -22.4606 -22.4606
   -21.4812 -21.4424 -21.4382 -21.4196  -6.4777  -6.3989  -6.1595  -5.7072
    -5.4853  -5.4376  -5.2482  -5.2482  -4.9057  -4.8756  -4.6917  -4.6917
    -3.8265  -3.7962  -3.7962  -3.5337  -3.5337  -3.4834  -3.4834  -3.4798
    -3.3828  -3.0315  -3.0315  -2.9354   5.2676   5.3293   5.7314   5.7544
     5.9034   5.9298   6.1382   6.5196   6.5196   6.8861   7.7280   7.7280
     7.7361   7.7361   8.2557   8.2557   8.2676   8.2676   8.3852   8.4228
     8.8208   9.0022   9.0022   9.2965   9.5354   9.5354   9.7069  10.0637
    10.0637  10.3080  10.3346  10.3346  10.7390  10.7948  10.7948  10.8423
    12.2352  12.2352  12.2372  12.4993  15.0134  15.0134  15.3193  15.3193
    15.8050  16.0870  16.1751  16.1823  16.2115  16.3349  16.3349  16.3498
    16.4106  16.8568  17.6056  17.8061  17.8757

     occupation numbers 
     1.0000   1.0000   1.0000   1.0000   1.0000   1.0000   1.0000   1.0000
     1.0000   1.0000   1.0000   1.0000   1.0000   1.0000   1.0000   1.0000
     1.0000   1.0000   1.0000   1.0000   1.0000   1.0000   1.0000   1.0000
     1.0000   1.0000   1.0000   1.0000   1.0000   1.0000   1.0000   1.0000
     1.0000   1.0000   1.0000   1.0000   1.0000   1.0000   1.0000   1.0000
     1.0000   1.0000   1.0000   1.0000   1.0000   1.0000   1.0000   1.0000
     1.0000   1.0000   1.0000   1.0000   1.0000   1.0000   1.0000   1.0000
     1.0000   1.0000   1.0000   1.0000   1.0000   1.0000   1.0000   1.0000
     1.0000   1.0000   1.0000   1.0000   1.0000   1.0000   1.0000   1.0000
     1.0000   1.0000   1.0000   1.0000   1.0000   1.0000   1.0000   1.0000
     1.0000   1.0000   1.0000   1.0000   0.0000   0.0000   0.0000   0.0000
     0.0000   0.0000   0.0000   0.0000   0.0000   0.0000   0.0000   0.0000
     0.0000   0.0000   0.0000   0.0000   0.0000

          k = 0.0000 0.0000 0.1455 (  9725 PWs)   bands (ev):

   -48.2362 -48.2340 -48.2331 -48.2315 -22.7370 -22.7177 -22.6284 -22.6196
   -22.5483 -22.5483 -22.5431 -22.5431 -22.4659 -22.4659 -22.4612 -22.4612
   -21.4769 -21.4422 -21.4402 -21.4218  -6.4411  -6.3434  -6.0531  -5.7193
    -5.4808  -5.4422  -5.2119  -5.2119  -5.0388  -5.0191  -4.7783  -4.7783
    -3.7868  -3.6902  -3.6902  -3.5290  -3.5290  -3.4883  -3.4883  -3.4280
    -3.4183  -3.0881  -3.0881  -2.9801   5.5276   5.6353   5.7336   5.7522
     5.9077   6.0221   6.1950   6.5890   6.5890   6.7954   7.5059   7.5059
     7.7901   7.7901   8.1695   8.2167   8.2167   8.3336   8.3336   8.4882
     8.8382   8.8934   9.2893   9.2893   9.3249   9.3249   9.6068   9.9433
    10.0781  10.0781  10.2741  10.2741  10.6720  10.6720  10.7486  10.8322
    12.2606  12.4723  12.6154  12.6154  15.0442  15.0442  15.0998  15.0998
    15.8431  16.1304  16.1304  16.1429  16.1904  16.2096  16.2731  16.5390
    16.6952  17.2635  17.6821  18.0465  18.1562

     occupation numbers 
     1.0000   1.0000   1.0000   1.0000   1.0000   1.0000   1.0000   1.0000
     1.0000   1.0000   1.0000   1.0000   1.0000   1.0000   1.0000   1.0000
     1.0000   1.0000   1.0000   1.0000   1.0000   1.0000   1.0000   1.0000
     1.0000   1.0000   1.0000   1.0000   1.0000   1.0000   1.0000   1.0000
     1.0000   1.0000   1.0000   1.0000   1.0000   1.0000   1.0000   1.0000
     1.0000   1.0000   1.0000   1.0000   1.0000   1.0000   1.0000   1.0000
     1.0000   1.0000   1.0000   1.0000   1.0000   1.0000   1.0000   1.0000
     1.0000   1.0000   1.0000   1.0000   1.0000   1.0000   1.0000   1.0000
     1.0000   1.0000   1.0000   1.0000   1.0000   1.0000   1.0000   1.0000
     1.0000   1.0000   1.0000   1.0000   1.0000   1.0000   1.0000   1.0000
     1.0000   1.0000   1.0000   1.0000   0.0000   0.0000   0.0000   0.0000
     0.0000   0.0000   0.0000   0.0000   0.0000   0.0000   0.0000   0.0000
     0.0000   0.0000   0.0000   0.0000   0.0000

          k = 0.0000 0.0000 0.2909 (  9708 PWs)   bands (ev):

   -48.2355 -48.2347 -48.2324 -48.2320 -22.7041 -22.6877 -22.6626 -22.6501
   -22.5467 -22.5467 -22.5447 -22.5447 -22.4645 -22.4645 -22.4627 -22.4627
   -21.4659 -21.4526 -21.4345 -21.4275  -6.3512  -6.2855  -5.7614  -5.6380
    -5.4689  -5.4542  -5.3693  -5.3509  -5.1071  -5.1071  -4.9493  -4.9493
    -3.6803  -3.5434  -3.5165  -3.5165  -3.5009  -3.5009  -3.4678  -3.4678
    -3.2692  -3.2456  -3.2456  -3.1032   5.7393   5.7464   5.8649   5.9122
     6.2624   6.4373   6.5575   6.7063   6.7935   6.7935   7.1176   7.1176
     7.4245   7.7887   7.9426   7.9426   8.1049   8.1049   8.5427   8.5427
     8.7913   8.9033   8.9033   9.0933   9.2922   9.3637   9.8245   9.8245
    10.1207  10.1207  10.1882  10.1882  10.3264  10.3264  10.7741  10.8060
    12.3231  12.4039  13.4404  13.4404  14.3373  14.3373  15.3507  15.3507
    15.7279  15.7279  15.9404  16.0552  16.1982  16.2047  16.7671  17.0415
    17.3232  17.4350  17.6648  17.8880  18.1314

     occupation numbers 
     1.0000   1.0000   1.0000   1.0000   1.0000   1.0000   1.0000   1.0000
     1.0000   1.0000   1.0000   1.0000   1.0000   1.0000   1.0000   1.0000
     1.0000   1.0000   1.0000   1.0000   1.0000   1.0000   1.0000   1.0000
     1.0000   1.0000   1.0000   1.0000   1.0000   1.0000   1.0000   1.0000
     1.0000   1.0000   1.0000   1.0000   1.0000   1.0000   1.0000   1.0000
     1.0000   1.0000   1.0000   1.0000   1.0000   1.0000   1.0000   1.0000
     1.0000   1.0000   1.0000   1.0000   1.0000   1.0000   1.0000   1.0000
     1.0000   1.0000   1.0000   1.0000   1.0000   1.0000   1.0000   1.0000
     1.0000   1.0000   1.0000   1.0000   1.0000   1.0000   1.0000   1.0000
     1.0000   1.0000   1.0000   1.0000   1.0000   1.0000   1.0000   1.0000
     1.0000   1.0000   1.0000   1.0000   0.4527   0.4527   0.0000   0.0000
     0.0000   0.0000   0.0000   0.0000   0.0000   0.0000   0.0000   0.0000
     0.0000   0.0000   0.0000   0.0000   0.0000

          k = 0.0000 0.2000 0.0000 (  9718 PWs)   bands (ev):

   -48.2360 -48.2337 -48.2337 -48.2313 -22.7467 -22.7300 -22.6143 -22.6085
   -22.5440 -22.5412 -22.5349 -22.5347 -22.4774 -22.4744 -22.4688 -22.4685
   -21.4737 -21.4426 -21.4377 -21.4226  -6.4206  -6.3503  -6.2475  -5.6463
    -5.4598  -5.3739  -5.2677  -5.2335  -4.9827  -4.9743  -4.9666  -4.7720
    -3.7670  -3.6521  -3.6290  -3.5139  -3.4970  -3.4724  -3.4452  -3.3939
    -3.3893  -3.0931  -3.0647  -2.9885   5.2868   5.3241   5.9950   6.0183
     6.1062   6.2219   6.3957   6.4205   6.5665   6.9951   7.0995   7.4226
     7.8224   7.8578   7.9814   8.0258   8.1242   8.2036   8.3779   8.8887
     9.0022   9.0167   9.0681   9.2324   9.3466   9.3725   9.5176   9.5256
     9.7669   9.8160  10.0282  10.1324  10.5963  10.6106  10.6265  10.7072
    12.5375  12.6467  12.8238  13.0494  14.7506  14.8148  15.3343  15.3451
    15.5134  15.8442  16.1193  16.1754  16.4266  16.6568  16.7438  16.8472
    16.8495  17.1933  17.8448  18.0783  18.1418

     occupation numbers 
     1.0000   1.0000   1.0000   1.0000   1.0000   1.0000   1.0000   1.0000
     1.0000   1.0000   1.0000   1.0000   1.0000   1.0000   1.0000   1.0000
     1.0000   1.0000   1.0000   1.0000   1.0000   1.0000   1.0000   1.0000
     1.0000   1.0000   1.0000   1.0000   1.0000   1.0000   1.0000   1.0000
     1.0000   1.0000   1.0000   1.0000   1.0000   1.0000   1.0000   1.0000
     1.0000   1.0000   1.0000   1.0000   1.0000   1.0000   1.0000   1.0000
     1.0000   1.0000   1.0000   1.0000   1.0000   1.0000   1.0000   1.0000
     1.0000   1.0000   1.0000   1.0000   1.0000   1.0000   1.0000   1.0000
     1.0000   1.0000   1.0000   1.0000   1.0000   1.0000   1.0000   1.0000
     1.0000   1.0000   1.0000   1.0000   1.0000   1.0000   1.0000   1.0000
     1.0000   1.0000   1.0000   1.0000   0.0000   0.0000   0.0000   0.0000
     0.0000   0.0000   0.0000   0.0000   0.0000   0.0000   0.0000   0.0000
     0.0000   0.0000   0.0000   0.0000   0.0000

          k = 0.0000 0.2000 0.1455 (  9717 PWs)   bands (ev):

   -48.2358 -48.2340 -48.2333 -48.2316 -22.7344 -22.7186 -22.6274 -22.6202
   -22.5431 -22.5405 -22.5358 -22.5353 -22.4766 -22.4738 -22.4697 -22.4691
   -21.4701 -21.4410 -21.4407 -21.4246  -6.3525  -6.3194  -6.1453  -5.6653
    -5.4518  -5.3824  -5.2338  -5.2038  -5.1649  -5.1058  -4.9366  -4.8437
    -3.7151  -3.6784  -3.5120  -3.4983  -3.4965  -3.4917  -3.4500  -3.4060
    -3.3693  -3.1442  -3.0900  -3.0214   5.5746   5.6297   5.9971   6.0158
     6.1335   6.2676   6.3588   6.5467   6.6391   6.9371   7.1896   7.5018
     7.5591   7.6053   7.8729   8.0801   8.0862   8.1828   8.2315   8.8293
     8.9303   8.9874   9.0414   9.2584   9.3017   9.3115   9.5538   9.6613
     9.7007   9.7857   9.9474   9.9937  10.5247  10.5296  10.6023  10.6862
    12.7765  12.8931  12.9033  13.0254  14.8415  14.8989  15.0670  15.0698
    15.5477  15.8100  15.9345  15.9632  16.6083  16.8188  16.8495  16.8676
    17.0809  17.4833  18.1064  18.2267  18.2962

     occupation numbers 
     1.0000   1.0000   1.0000   1.0000   1.0000   1.0000   1.0000   1.0000
     1.0000   1.0000   1.0000   1.0000   1.0000   1.0000   1.0000   1.0000
     1.0000   1.0000   1.0000   1.0000   1.0000   1.0000   1.0000   1.0000
     1.0000   1.0000   1.0000   1.0000   1.0000   1.0000   1.0000   1.0000
     1.0000   1.0000   1.0000   1.0000   1.0000   1.0000   1.0000   1.0000
     1.0000   1.0000   1.0000   1.0000   1.0000   1.0000   1.0000   1.0000
     1.0000   1.0000   1.0000   1.0000   1.0000   1.0000   1.0000   1.0000
     1.0000   1.0000   1.0000   1.0000   1.0000   1.0000   1.0000   1.0000
     1.0000   1.0000   1.0000   1.0000   1.0000   1.0000   1.0000   1.0000
     1.0000   1.0000   1.0000   1.0000   1.0000   1.0000   1.0000   1.0000
     1.0000   1.0000   1.0000   1.0000   0.0000   0.0000   0.0000   0.0000
     0.0000   0.0000   0.0000   0.0000   0.0000   0.0000   0.0000   0.0000
     0.0000   0.0000   0.0000   0.0000   0.0000

          k = 0.0000 0.2000 0.2909 (  9702 PWs)   bands (ev):

   -48.2352 -48.2344 -48.2328 -48.2321 -22.7018 -22.6886 -22.6610 -22.6510
   -22.5408 -22.5389 -22.5380 -22.5369 -22.4744 -22.4724 -22.4718 -22.4705
   -21.4609 -21.4498 -21.4357 -21.4295  -6.2510  -6.2394  -5.8673  -5.6291
    -5.4983  -5.4308  -5.4043  -5.3921  -5.1368  -5.1219  -5.0139  -4.9933
    -3.6865  -3.5748  -3.5073  -3.5021  -3.4847  -3.4785  -3.4432  -3.3260
    -3.2862  -3.2416  -3.1780  -3.1131   6.0026   6.0097   6.0810   6.1551
     6.4209   6.4253   6.4923   6.7815   6.8530   6.9408   7.1352   7.1930
     7.3594   7.4389   7.7137   7.7830   7.8255   7.9515   8.2478   8.3303
     8.5561   8.5673   9.1518   9.3438   9.4779   9.6369   9.6649   9.7627
     9.7644   9.8237   9.8386   9.9148  10.2249  10.2623  10.6212  10.6515
    12.8873  12.9636  13.5522  13.5670  14.3842  14.3869  15.1113  15.1489
    15.5134  15.5382  15.6353  15.7407  16.8488  16.8511  17.0931  17.3036
    17.6310  17.7446  17.8789  18.2456  18.3216

     occupation numbers 
     1.0000   1.0000   1.0000   1.0000   1.0000   1.0000   1.0000   1.0000
     1.0000   1.0000   1.0000   1.0000   1.0000   1.0000   1.0000   1.0000
     1.0000   1.0000   1.0000   1.0000   1.0000   1.0000   1.0000   1.0000
     1.0000   1.0000   1.0000   1.0000   1.0000   1.0000   1.0000   1.0000
     1.0000   1.0000   1.0000   1.0000   1.0000   1.0000   1.0000   1.0000
     1.0000   1.0000   1.0000   1.0000   1.0000   1.0000   1.0000   1.0000
     1.0000   1.0000   1.0000   1.0000   1.0000   1.0000   1.0000   1.0000
     1.0000   1.0000   1.0000   1.0000   1.0000   1.0000   1.0000   1.0000
     1.0000   1.0000   1.0000   1.0000   1.0000   1.0000   1.0000   1.0000
     1.0000   1.0000   1.0000   1.0000   1.0000   1.0000   1.0000   1.0000
     1.0000   1.0000   1.0000   1.0000   0.0768   0.0678   0.0000   0.0000
     0.0000   0.0000   0.0000   0.0000   0.0000   0.0000   0.0000   0.0000
     0.0000   0.0000   0.0000   0.0000   0.0000

          k = 0.0000 0.4000 0.0000 (  9724 PWs)   bands (ev):

   -48.2352 -48.2343 -48.2332 -48.2321 -22.7400 -22.7335 -22.6125 -22.6103
   -22.5280 -22.5206 -22.5150 -22.5143 -22.5028 -22.4951 -22.4899 -22.4891
   -21.4580 -21.4464 -21.4351 -21.4294  -6.4420  -6.3852  -5.9943  -5.4879
    -5.4798  -5.3957  -5.3221  -5.3006  -5.2007  -5.0950  -5.0926  -4.9717
    -3.6898  -3.5931  -3.4511  -3.4212  -3.3914  -3.3751  -3.3665  -3.2789
    -3.2715  -3.2386  -3.1416  -3.1412   5.3052   5.3142   6.3013   6.4903
     6.6255   6.6986   6.7200   6.7340   6.9872   7.0067   7.0395   7.3358
     7.4633   7.5206   7.5662   7.6492   8.0293   8.0979   8.2118   8.2415
     8.4631   8.7561   8.7798   9.0699   9.0821   9.2713   9.5095   9.6626
     9.6926   9.7951   9.8946   9.9524  10.0946  10.2284  10.2625  10.4172
    13.2441  13.4652  13.8071  14.0734  14.0922  14.2592  14.7598  15.0901
    15.4620  15.4896  15.7527  15.8117  17.2048  17.3036  17.5436  17.6432
    18.1172  18.1584  18.2537  18.3046  18.7038

     occupation numbers 
     1.0000   1.0000   1.0000   1.0000   1.0000   1.0000   1.0000   1.0000
     1.0000   1.0000   1.0000   1.0000   1.0000   1.0000   1.0000   1.0000
     1.0000   1.0000   1.0000   1.0000   1.0000   1.0000   1.0000   1.0000
     1.0000   1.0000   1.0000   1.0000   1.0000   1.0000   1.0000   1.0000
     1.0000   1.0000   1.0000   1.0000   1.0000   1.0000   1.0000   1.0000
     1.0000   1.0000   1.0000   1.0000   1.0000   1.0000   1.0000   1.0000
     1.0000   1.0000   1.0000   1.0000   1.0000   1.0000   1.0000   1.0000
     1.0000   1.0000   1.0000   1.0000   1.0000   1.0000   1.0000   1.0000
     1.0000   1.0000   1.0000   1.0000   1.0000   1.0000   1.0000   1.0000
     1.0000   1.0000   1.0000   1.0000   1.0000   1.0000   1.0000   1.0000
     1.0000   1.0000   1.0000   1.0000   1.0000   0.9744   0.0000   0.0000
     0.0000   0.0000   0.0000   0.0000   0.0000   0.0000   0.0000   0.0000
     0.0000   0.0000   0.0000   0.0000   0.0000

          k = 0.0000 0.4000 0.1455 (  9727 PWs)   bands (ev):

   -48.2350 -48.2341 -48.2334 -48.2324 -22.7281 -22.7220 -22.6249 -22.6222
   -22.5268 -22.5200 -22.5163 -22.5150 -22.5016 -22.4945 -22.4911 -22.4897
   -21.4558 -21.4447 -21.4373 -21.4310  -6.3563  -6.2896  -5.9833  -5.5293
    -5.4971  -5.3790  -5.2954  -5.2952  -5.2216  -5.1964  -5.1636  -5.0150
    -3.6367  -3.5714  -3.4871  -3.4771  -3.4736  -3.4085  -3.3384  -3.2749
    -3.2535  -3.2208  -3.1179  -3.1175   5.6115   5.6198   6.3497   6.5750
     6.6117   6.7001   6.7139   6.8175   7.0358   7.0620   7.0859   7.2545
     7.4285   7.5552   7.5618   7.6575   7.7218   7.8973   7.9952   8.0843
     8.3809   8.4407   8.7755   8.9572   9.3828   9.3899   9.5552   9.6661
     9.6736   9.7177   9.9391   9.9494  10.0717  10.1820  10.2634  10.4111
    13.4180  13.5923  13.8384  14.0654  14.1904  14.3454  14.7929  15.0593
    15.2217  15.2271  15.5475  15.5763  17.4067  17.6644  17.7186  18.1135
    18.1138  18.2650  18.2689  18.3040  18.6303

     occupation numbers 
     1.0000   1.0000   1.0000   1.0000   1.0000   1.0000   1.0000   1.0000
     1.0000   1.0000   1.0000   1.0000   1.0000   1.0000   1.0000   1.0000
     1.0000   1.0000   1.0000   1.0000   1.0000   1.0000   1.0000   1.0000
     1.0000   1.0000   1.0000   1.0000   1.0000   1.0000   1.0000   1.0000
     1.0000   1.0000   1.0000   1.0000   1.0000   1.0000   1.0000   1.0000
     1.0000   1.0000   1.0000   1.0000   1.0000   1.0000   1.0000   1.0000
     1.0000   1.0000   1.0000   1.0000   1.0000   1.0000   1.0000   1.0000
     1.0000   1.0000   1.0000   1.0000   1.0000   1.0000   1.0000   1.0000
     1.0000   1.0000   1.0000   1.0000   1.0000   1.0000   1.0000   1.0000
     1.0000   1.0000   1.0000   1.0000   1.0000   1.0000   1.0000   1.0000
     1.0000   1.0000   1.0000   1.0000   0.9991   0.3570   0.0000   0.0000
     0.0000   0.0000   0.0000   0.0000   0.0000   0.0000   0.0000   0.0000
     0.0000   0.0000   0.0000   0.0000   0.0000

          k = 0.0000 0.4000 0.2909 (  9733 PWs)   bands (ev):

   -48.2345 -48.2337 -48.2336 -48.2331 -22.6967 -22.6916 -22.6573 -22.6534
   -22.5235 -22.5196 -22.5185 -22.5166 -22.4983 -22.4942 -22.4931 -22.4912
   -21.4500 -21.4429 -21.4405 -21.4352  -6.1497  -6.0349  -5.9960  -5.7242
    -5.5148  -5.4123  -5.3336  -5.2814  -5.2737  -5.2516  -5.2204  -5.1151
    -3.5598  -3.5491  -3.5173  -3.5113  -3.4840  -3.4553  -3.4310  -3.3748
    -3.1576  -3.1465  -3.1088  -3.1086   6.3734   6.3924   6.4694   6.5599
     6.7039   6.7090   6.8307   7.0024   7.0350   7.0527   7.2183   7.2997
     7.3066   7.3758   7.4288   7.4393   7.4977   7.6952   7.7028   7.9190
     7.9420   7.9442   8.4044   8.4920   9.6920   9.7111   9.7149   9.7228
     9.7527   9.7942   9.9978   9.9995  10.0092  10.0192  10.2881  10.3620
    13.8645  13.9764  13.9926  13.9963  14.5432  14.6202  14.6203  14.6252
    14.8780  14.9743  15.0650  15.0778  17.8171  17.9837  18.1824  18.2752
    18.3025  18.3293  18.4222  18.5035  18.5196

     occupation numbers 
     1.0000   1.0000   1.0000   1.0000   1.0000   1.0000   1.0000   1.0000
     1.0000   1.0000   1.0000   1.0000   1.0000   1.0000   1.0000   1.0000
     1.0000   1.0000   1.0000   1.0000   1.0000   1.0000   1.0000   1.0000
     1.0000   1.0000   1.0000   1.0000   1.0000   1.0000   1.0000   1.0000
     1.0000   1.0000   1.0000   1.0000   1.0000   1.0000   1.0000   1.0000
     1.0000   1.0000   1.0000   1.0000   1.0000   1.0000   1.0000   1.0000
     1.0000   1.0000   1.0000   1.0000   1.0000   1.0000   1.0000   1.0000
     1.0000   1.0000   1.0000   1.0000   1.0000   1.0000   1.0000   1.0000
     1.0000   1.0000   1.0000   1.0000   1.0000   1.0000   1.0000   1.0000
     1.0000   1.0000   1.0000   1.0000   1.0000   1.0000   1.0000   1.0000
     1.0000   1.0000   1.0000   1.0000   0.0000   0.0000   0.0000   0.0000
     0.0000   0.0000   0.0000   0.0000   0.0000   0.0000   0.0000   0.0000
     0.0000   0.0000   0.0000   0.0000   0.0000

          k = 0.2000 0.2000 0.0000 (  9713 PWs)   bands (ev):

   -48.2358 -48.2338 -48.2335 -48.2316 -22.7440 -22.7306 -22.6137 -22.6090
   -22.5555 -22.5440 -22.5194 -22.5132 -22.5023 -22.4908 -22.4651 -22.4594
   -21.4670 -21.4421 -21.4376 -21.4254  -6.4741  -6.3415  -6.2442  -5.6542
    -5.3807  -5.3277  -5.3269  -5.0958  -5.0744  -5.0601  -5.0574  -4.9393
    -3.6728  -3.5489  -3.5210  -3.5061  -3.4667  -3.4629  -3.4032  -3.3674
    -3.3242  -3.1655  -3.0538  -3.0197   5.2817   5.3190   5.8171   5.8954
     6.2176   6.3772   6.6011   6.7163   6.7754   6.9983   7.0826   7.5341
     7.5684   7.6496   7.8956   7.9563   8.0712   8.1725   8.3439   8.8087
     8.8613   8.9932   9.0143   9.1124   9.1255   9.3502   9.3889   9.4101
     9.6641   9.7720  10.1349  10.1378  10.3438  10.3913  10.3982  10.7634
    12.3036  13.3205  13.3341  13.4917  14.1953  15.0033  15.3293  15.3774
    15.4122  15.6800  15.8704  16.2199  16.3745  16.7373  16.9266  17.0146
    17.5092  17.7609  17.8291  18.0265  18.4534

     occupation numbers 
     1.0000   1.0000   1.0000   1.0000   1.0000   1.0000   1.0000   1.0000
     1.0000   1.0000   1.0000   1.0000   1.0000   1.0000   1.0000   1.0000
     1.0000   1.0000   1.0000   1.0000   1.0000   1.0000   1.0000   1.0000
     1.0000   1.0000   1.0000   1.0000   1.0000   1.0000   1.0000   1.0000
     1.0000   1.0000   1.0000   1.0000   1.0000   1.0000   1.0000   1.0000
     1.0000   1.0000   1.0000   1.0000   1.0000   1.0000   1.0000   1.0000
     1.0000   1.0000   1.0000   1.0000   1.0000   1.0000   1.0000   1.0000
     1.0000   1.0000   1.0000   1.0000   1.0000   1.0000   1.0000   1.0000
     1.0000   1.0000   1.0000   1.0000   1.0000   1.0000   1.0000   1.0000
     1.0000   1.0000   1.0000   1.0000   1.0000   1.0000   1.0000   1.0000
     1.0000   1.0000   1.0000   1.0000   0.9989   0.0000   0.0000   0.0000
     0.0000   0.0000   0.0000   0.0000   0.0000   0.0000   0.0000   0.0000
     0.0000   0.0000   0.0000   0.0000   0.0000

          k = 0.2000 0.2000 0.1455 (  9731 PWs)   bands (ev):

   -48.2355 -48.2339 -48.2336 -48.2319 -22.7320 -22.7192 -22.6266 -22.6208
   -22.5545 -22.5452 -22.5189 -22.5138 -22.5011 -22.4920 -22.4645 -22.4600
   -21.4641 -21.4405 -21.4403 -21.4270  -6.4006  -6.2437  -6.2227  -5.6530
    -5.3435  -5.3426  -5.3404  -5.2952  -5.1628  -5.0785  -5.0046  -4.9498
    -3.7069  -3.5155  -3.5092  -3.4725  -3.4685  -3.4486  -3.4190  -3.3794
    -3.3003  -3.1578  -3.1011  -3.0480   5.5522   5.6243   5.8176   5.9338
     6.2853   6.4244   6.7072   6.7496   6.7756   7.0421   7.0456   7.4870
     7.5576   7.6349   7.6690   7.7323   8.0557   8.1262   8.1295   8.6048
     8.8551   8.8733   8.8952   9.2048   9.3468   9.3522   9.4129   9.5717
     9.6790   9.8058   9.8672  10.0083  10.2675  10.3678  10.4022  10.6855
    12.6615  13.3549  13.4478  13.4720  14.3169  15.0613  15.0700  15.1530
    15.4081  15.6514  15.6543  16.0287  16.5849  16.9057  17.0025  17.1064
    17.7801  17.9423  18.2044  18.2212  18.5011

     occupation numbers 
     1.0000   1.0000   1.0000   1.0000   1.0000   1.0000   1.0000   1.0000
     1.0000   1.0000   1.0000   1.0000   1.0000   1.0000   1.0000   1.0000
     1.0000   1.0000   1.0000   1.0000   1.0000   1.0000   1.0000   1.0000
     1.0000   1.0000   1.0000   1.0000   1.0000   1.0000   1.0000   1.0000
     1.0000   1.0000   1.0000   1.0000   1.0000   1.0000   1.0000   1.0000
     1.0000   1.0000   1.0000   1.0000   1.0000   1.0000   1.0000   1.0000
     1.0000   1.0000   1.0000   1.0000   1.0000   1.0000   1.0000   1.0000
     1.0000   1.0000   1.0000   1.0000   1.0000   1.0000   1.0000   1.0000
     1.0000   1.0000   1.0000   1.0000   1.0000   1.0000   1.0000   1.0000
     1.0000   1.0000   1.0000   1.0000   1.0000   1.0000   1.0000   1.0000
     1.0000   1.0000   1.0000   1.0000   0.6915   0.0000   0.0000   0.0000
     0.0000   0.0000   0.0000   0.0000   0.0000   0.0000   0.0000   0.0000
     0.0000   0.0000   0.0000   0.0000   0.0000

          k = 0.2000 0.2000 0.2909 (  9719 PWs)   bands (ev):

   -48.2349 -48.2343 -48.2330 -48.2325 -22.6999 -22.6892 -22.6597 -22.6515
   -22.5515 -22.5480 -22.5174 -22.5154 -22.4982 -22.4948 -22.4632 -22.4614
   -21.4566 -21.4475 -21.4363 -21.4312  -6.2492  -6.1904  -5.9786  -5.6271
    -5.6135  -5.4390  -5.3569  -5.3339  -5.2388  -5.0978  -5.0342  -4.9838
    -3.6952  -3.6010  -3.5011  -3.4832  -3.4221  -3.4014  -3.3870  -3.2848
    -3.2277  -3.2240  -3.1885  -3.1248   5.8006   5.8171   6.4127   6.4528
     6.4603   6.5141   6.7668   6.8177   6.9725   7.0072   7.1204   7.2359
     7.2620   7.2884   7.4670   7.7496   7.8042   7.9203   7.9935   8.0302
     8.3051   8.5861   9.0036   9.2094   9.4703   9.5383   9.7074   9.7293
     9.8044   9.8331   9.8545   9.8690  10.0463  10.2356  10.4227  10.5048
    13.3090  13.4200  13.5502  13.8763  14.3728  14.5347  14.6686  15.1706
    15.2777  15.4881  15.5660  15.6443  16.8341  16.9536  17.3796  17.5546
    18.0080  18.1262  18.1557  18.5570  18.6645

     occupation numbers 
     1.0000   1.0000   1.0000   1.0000   1.0000   1.0000   1.0000   1.0000
     1.0000   1.0000   1.0000   1.0000   1.0000   1.0000   1.0000   1.0000
     1.0000   1.0000   1.0000   1.0000   1.0000   1.0000   1.0000   1.0000
     1.0000   1.0000   1.0000   1.0000   1.0000   1.0000   1.0000   1.0000
     1.0000   1.0000   1.0000   1.0000   1.0000   1.0000   1.0000   1.0000
     1.0000   1.0000   1.0000   1.0000   1.0000   1.0000   1.0000   1.0000
     1.0000   1.0000   1.0000   1.0000   1.0000   1.0000   1.0000   1.0000
     1.0000   1.0000   1.0000   1.0000   1.0000   1.0000   1.0000   1.0000
     1.0000   1.0000   1.0000   1.0000   1.0000   1.0000   1.0000   1.0000
     1.0000   1.0000   1.0000   1.0000   1.0000   1.0000   1.0000   1.0000
     1.0000   1.0000   1.0000   1.0000   0.1265   0.0001   0.0000   0.0000
     0.0000   0.0000   0.0000   0.0000   0.0000   0.0000   0.0000   0.0000
     0.0000   0.0000   0.0000   0.0000   0.0000

          k = 0.2000 0.4000 0.0000 (  9757 PWs)   bands (ev):

   -48.2352 -48.2344 -48.2333 -48.2323 -22.7384 -22.7332 -22.6122 -22.6104
   -22.5526 -22.5373 -22.5323 -22.5172 -22.4936 -22.4873 -22.4728 -22.4668
   -21.4536 -21.4442 -21.4359 -21.4312  -6.5337  -6.4865  -5.9442  -5.6080
    -5.5089  -5.5042  -5.2072  -5.1695  -5.1649  -5.1176  -5.0675  -5.0197
    -3.5851  -3.5053  -3.4602  -3.4499  -3.4257  -3.3340  -3.3175  -3.2803
    -3.2664  -3.1609  -3.1152  -3.0698   5.2937   5.3077   6.0229   6.0821
     6.1303   6.1481   6.7485   6.8242   6.9336   6.9983   7.2507   7.3474
     7.5821   7.7562   7.8251   8.0276   8.0709   8.2278   8.2322   8.2395
     8.6497   8.6737   8.7561   9.0057   9.2036   9.3262   9.4432   9.5108
     9.6085   9.7686   9.8788   9.9071   9.9132   9.9425  10.3038  10.6343
    12.6803  13.4200  14.1301  14.1885  14.3595  14.7610  14.9176  15.1609
    15.3854  15.5771  15.6398  15.9810  16.7713  17.3957  17.4470  17.6422
    17.7403  18.1925  18.2873  18.3301  18.6192

     occupation numbers 
     1.0000   1.0000   1.0000   1.0000   1.0000   1.0000   1.0000   1.0000
     1.0000   1.0000   1.0000   1.0000   1.0000   1.0000   1.0000   1.0000
     1.0000   1.0000   1.0000   1.0000   1.0000   1.0000   1.0000   1.0000
     1.0000   1.0000   1.0000   1.0000   1.0000   1.0000   1.0000   1.0000
     1.0000   1.0000   1.0000   1.0000   1.0000   1.0000   1.0000   1.0000
     1.0000   1.0000   1.0000   1.0000   1.0000   1.0000   1.0000   1.0000
     1.0000   1.0000   1.0000   1.0000   1.0000   1.0000   1.0000   1.0000
     1.0000   1.0000   1.0000   1.0000   1.0000   1.0000   1.0000   1.0000
     1.0000   1.0000   1.0000   1.0000   1.0000   1.0000   1.0000   1.0000
     1.0000   1.0000   1.0000   1.0000   1.0000   1.0000   1.0000   1.0000
     1.0000   1.0000   1.0000   0.9992   0.2174   0.0000   0.0000   0.0000
     0.0000   0.0000   0.0000   0.0000   0.0000   0.0000   0.0000   0.0000
     0.0000   0.0000   0.0000   0.0000   0.0000

          k = 0.2000 0.4000 0.1455 (  9739 PWs)   bands (ev):

   -48.2350 -48.2342 -48.2333 -48.2325 -22.7266 -22.7217 -22.6246 -22.6224
   -22.5510 -22.5388 -22.5309 -22.5186 -22.4930 -22.4879 -22.4722 -22.4673
   -21.4518 -21.4429 -21.4375 -21.4324  -6.4503  -6.3952  -5.9547  -5.5951
    -5.5886  -5.4724  -5.2805  -5.2122  -5.1827  -5.1437  -5.0628  -5.0279
    -3.5857  -3.5012  -3.5002  -3.4965  -3.3949  -3.3722  -3.2993  -3.2718
    -3.2222  -3.1611  -3.1130  -3.0922   5.5894   5.6123   6.0757   6.0795
     6.2044   6.2325   6.7348   6.8431   6.9724   6.9980   7.3219   7.3453
     7.5456   7.6416   7.6662   7.7905   7.9555   8.0257   8.0347   8.1720
     8.2966   8.9273   8.9670   9.1688   9.2492   9.3585   9.5037   9.5115
     9.5392   9.6206   9.7691   9.8186   9.9298   9.9488  10.2864  10.5729
    12.9582  13.6012  14.1898  14.2074  14.3402  14.8128  14.9429  15.1269
    15.1372  15.3386  15.4124  15.7837  17.0698  17.5883  17.7239  17.7904
    17.8135  18.3043  18.3845  18.4454  18.6074

     occupation numbers 
     1.0000   1.0000   1.0000   1.0000   1.0000   1.0000   1.0000   1.0000
     1.0000   1.0000   1.0000   1.0000   1.0000   1.0000   1.0000   1.0000
     1.0000   1.0000   1.0000   1.0000   1.0000   1.0000   1.0000   1.0000
     1.0000   1.0000   1.0000   1.0000   1.0000   1.0000   1.0000   1.0000
     1.0000   1.0000   1.0000   1.0000   1.0000   1.0000   1.0000   1.0000
     1.0000   1.0000   1.0000   1.0000   1.0000   1.0000   1.0000   1.0000
     1.0000   1.0000   1.0000   1.0000   1.0000   1.0000   1.0000   1.0000
     1.0000   1.0000   1.0000   1.0000   1.0000   1.0000   1.0000   1.0000
     1.0000   1.0000   1.0000   1.0000   1.0000   1.0000   1.0000   1.0000
     1.0000   1.0000   1.0000   1.0000   1.0000   1.0000   1.0000   1.0000
     1.0000   1.0000   0.9991   0.9979   0.4178   0.0000   0.0000   0.0000
     0.0000   0.0000   0.0000   0.0000   0.0000   0.0000   0.0000   0.0000
     0.0000   0.0000   0.0000   0.0000   0.0000

          k = 0.2000 0.4000 0.2909 (  9738 PWs)   bands (ev):

   -48.2344 -48.2338 -48.2337 -48.2331 -22.6955 -22.6914 -22.6565 -22.6534
   -22.5473 -22.5426 -22.5270 -22.5223 -22.4914 -22.4895 -22.4707 -22.4688
   -21.4473 -21.4419 -21.4397 -21.4357  -6.2415  -6.1515  -6.0367  -5.8430
    -5.5325  -5.4284  -5.3862  -5.2823  -5.2098  -5.1938  -5.0705  -5.0509
    -3.5933  -3.5723  -3.5080  -3.4979  -3.3616  -3.3496  -3.3455  -3.2786
    -3.1605  -3.1484  -3.1266  -3.1238   6.0366   6.0711   6.3335   6.3670
     6.5064   6.5860   6.6787   6.7517   6.9694   7.0845   7.1645   7.3238
     7.3482   7.4093   7.5056   7.5113   7.6041   7.7504   7.8880   8.0373
     8.0852   8.3315   8.9181   8.9821   9.4412   9.5442   9.5824   9.6168
     9.6178   9.7326   9.7505   9.9024   9.9248  10.0414  10.1923  10.3612
    13.6374  14.0986  14.2595  14.2668  14.4361  14.4945  14.7529  14.9048
    15.0000  15.0106  15.0844  15.3654  17.4719  17.6532  17.9788  18.1893
    18.4506  18.5012  18.5627  18.6259  18.6838

     occupation numbers 
     1.0000   1.0000   1.0000   1.0000   1.0000   1.0000   1.0000   1.0000
     1.0000   1.0000   1.0000   1.0000   1.0000   1.0000   1.0000   1.0000
     1.0000   1.0000   1.0000   1.0000   1.0000   1.0000   1.0000   1.0000
     1.0000   1.0000   1.0000   1.0000   1.0000   1.0000   1.0000   1.0000
     1.0000   1.0000   1.0000   1.0000   1.0000   1.0000   1.0000   1.0000
     1.0000   1.0000   1.0000   1.0000   1.0000   1.0000   1.0000   1.0000
     1.0000   1.0000   1.0000   1.0000   1.0000   1.0000   1.0000   1.0000
     1.0000   1.0000   1.0000   1.0000   1.0000   1.0000   1.0000   1.0000
     1.0000   1.0000   1.0000   1.0000   1.0000   1.0000   1.0000   1.0000
     1.0000   1.0000   1.0000   1.0000   1.0000   1.0000   1.0000   1.0000
     1.0000   1.0000   0.9739   0.9632   0.0065   0.0004   0.0000   0.0000
     0.0000   0.0000   0.0000   0.0000   0.0000   0.0000   0.0000   0.0000
     0.0000   0.0000   0.0000   0.0000   0.0000

          k = 0.4000 0.4000 0.0000 (  9747 PWs)   bands (ev):

   -48.2349 -48.2347 -48.2330 -48.2326 -22.7352 -22.7332 -22.6116 -22.6110
   -22.5662 -22.5585 -22.5466 -22.5389 -22.4710 -22.4654 -22.4630 -22.4577
   -21.4452 -21.4417 -21.4365 -21.4347  -6.6502  -6.6318  -5.8030  -5.6499
    -5.6189  -5.6113  -5.2703  -5.2674  -5.2167  -5.1911  -4.8266  -4.7902
    -3.5003  -3.4613  -3.4451  -3.4376  -3.4359  -3.4293  -3.2348  -3.2110
    -3.1329  -3.0823  -3.0316  -3.0013   5.2763   5.2899   5.7299   5.7587
     5.8404   5.8858   6.0985   6.1342   7.1705   7.3234   7.5466   7.5634
     7.7261   7.9837   8.0689   8.1688   8.2260   8.2950   8.3251   8.3420
     8.4500   8.4778   8.8623   8.9523   9.2514   9.2662   9.3317   9.3932
     9.4953   9.5381   9.6920   9.8479  10.0146  10.0306  10.6083  10.7145
    12.4209  12.7465  14.7456  14.7897  14.8498  14.9884  15.0520  15.1528
    15.3461  15.4121  15.8747  16.0313  16.4169  16.7761  17.3973  17.7806
    17.8115  17.9657  18.1075  18.3437  18.8890

     occupation numbers 
     1.0000   1.0000   1.0000   1.0000   1.0000   1.0000   1.0000   1.0000
     1.0000   1.0000   1.0000   1.0000   1.0000   1.0000   1.0000   1.0000
     1.0000   1.0000   1.0000   1.0000   1.0000   1.0000   1.0000   1.0000
     1.0000   1.0000   1.0000   1.0000   1.0000   1.0000   1.0000   1.0000
     1.0000   1.0000   1.0000   1.0000   1.0000   1.0000   1.0000   1.0000
     1.0000   1.0000   1.0000   1.0000   1.0000   1.0000   1.0000   1.0000
     1.0000   1.0000   1.0000   1.0000   1.0000   1.0000   1.0000   1.0000
     1.0000   1.0000   1.0000   1.0000   1.0000   1.0000   1.0000   1.0000
     1.0000   1.0000   1.0000   1.0000   1.0000   1.0000   1.0000   1.0000
     1.0000   1.0000   1.0000   1.0000   1.0000   1.0000   1.0000   1.0000
     1.0000   1.0000   0.0000   0.0000   0.0000   0.0000   0.0000   0.0000
     0.0000   0.0000   0.0000   0.0000   0.0000   0.0000   0.0000   0.0000
     0.0000   0.0000   0.0000   0.0000   0.0000

          k = 0.4000 0.4000 0.1455 (  9742 PWs)   bands (ev):

   -48.2348 -48.2344 -48.2330 -48.2328 -22.7236 -22.7217 -22.6237 -22.6229
   -22.5643 -22.5567 -22.5484 -22.5408 -22.4704 -22.4660 -22.4625 -22.4581
   -21.4444 -21.4410 -21.4373 -21.4354  -6.5663  -6.5451  -5.8718  -5.7415
    -5.6174  -5.5751  -5.3243  -5.2778  -5.1801  -5.1555  -4.8790  -4.8314
    -3.5050  -3.4936  -3.4762  -3.4362  -3.4047  -3.3396  -3.2330  -3.2185
    -3.1426  -3.1051  -3.0556  -3.0339   5.5471   5.5846   5.8372   5.8439
     5.8727   5.9300   6.0936   6.1628   7.2409   7.3324   7.3943   7.5183
     7.5714   7.7597   7.7756   7.8808   8.0044   8.1767   8.2061   8.2577
     8.7726   8.9612   9.0798   9.1828   9.2545   9.3357   9.3459   9.4142
     9.4482   9.4861   9.4948   9.6970   9.7297   9.8811  10.5520  10.6407
    12.7678  13.0269  14.7716  14.7955  14.8391  15.0164  15.0636  15.0899
    15.1441  15.1572  15.6810  15.8519  16.6830  17.0823  17.3792  17.7978
    17.9486  18.1387  18.2327  18.4426  18.9554

     occupation numbers 
     1.0000   1.0000   1.0000   1.0000   1.0000   1.0000   1.0000   1.0000
     1.0000   1.0000   1.0000   1.0000   1.0000   1.0000   1.0000   1.0000
     1.0000   1.0000   1.0000   1.0000   1.0000   1.0000   1.0000   1.0000
     1.0000   1.0000   1.0000   1.0000   1.0000   1.0000   1.0000   1.0000
     1.0000   1.0000   1.0000   1.0000   1.0000   1.0000   1.0000   1.0000
     1.0000   1.0000   1.0000   1.0000   1.0000   1.0000   1.0000   1.0000
     1.0000   1.0000   1.0000   1.0000   1.0000   1.0000   1.0000   1.0000
     1.0000   1.0000   1.0000   1.0000   1.0000   1.0000   1.0000   1.0000
     1.0000   1.0000   1.0000   1.0000   1.0000   1.0000   1.0000   1.0000
     1.0000   1.0000   1.0000   1.0000   1.0000   1.0000   1.0000   1.0000
     1.0000   1.0000   0.0000   0.0000   0.0000   0.0000   0.0000   0.0000
     0.0000   0.0000   0.0000   0.0000   0.0000   0.0000   0.0000   0.0000
     0.0000   0.0000   0.0000   0.0000   0.0000

          k = 0.4000 0.4000 0.2909 (  9728 PWs)   bands (ev):

   -48.2341 -48.2338 -48.2336 -48.2333 -22.6931 -22.6915 -22.6549 -22.6537
   -22.5594 -22.5533 -22.5517 -22.5457 -22.4690 -22.4674 -22.4611 -22.4594
   -21.4422 -21.4395 -21.4393 -21.4371  -6.3458  -6.3130  -6.0763  -6.0120
    -5.5285  -5.4765  -5.4155  -5.3539  -5.1159  -5.0600  -4.9995  -4.9363
    -3.5258  -3.5074  -3.4760  -3.4541  -3.3125  -3.2455  -3.2342  -3.1964
    -3.1777  -3.1446  -3.1144  -3.1116   5.7998   5.8275   6.0309   6.0785
     6.1781   6.2231   6.5048   6.5519   6.7055   6.8006   7.4354   7.4669
     7.5122   7.5847   7.6285   7.6826   7.7222   7.8225   7.9104   8.0923
     8.9249   8.9932   9.0596   9.0974   9.2822   9.3397   9.3908   9.3947
     9.4817   9.4877   9.5419   9.6426   9.8948   9.9069  10.3431  10.3845
    13.5453  13.7097  14.4019  14.5088  14.8114  14.8344  14.9210  15.0887
    15.1205  15.1581  15.2662  15.4709  17.0862  17.2999  17.5582  17.7748
    18.3022  18.5693  18.6263  18.7070  18.7699

     occupation numbers 
     1.0000   1.0000   1.0000   1.0000   1.0000   1.0000   1.0000   1.0000
     1.0000   1.0000   1.0000   1.0000   1.0000   1.0000   1.0000   1.0000
     1.0000   1.0000   1.0000   1.0000   1.0000   1.0000   1.0000   1.0000
     1.0000   1.0000   1.0000   1.0000   1.0000   1.0000   1.0000   1.0000
     1.0000   1.0000   1.0000   1.0000   1.0000   1.0000   1.0000   1.0000
     1.0000   1.0000   1.0000   1.0000   1.0000   1.0000   1.0000   1.0000
     1.0000   1.0000   1.0000   1.0000   1.0000   1.0000   1.0000   1.0000
     1.0000   1.0000   1.0000   1.0000   1.0000   1.0000   1.0000   1.0000
     1.0000   1.0000   1.0000   1.0000   1.0000   1.0000   1.0000   1.0000
     1.0000   1.0000   1.0000   1.0000   1.0000   1.0000   1.0000   1.0000
     1.0000   1.0000   0.0338   0.0002   0.0000   0.0000   0.0000   0.0000
     0.0000   0.0000   0.0000   0.0000   0.0000   0.0000   0.0000   0.0000
     0.0000   0.0000   0.0000   0.0000   0.0000

     the Fermi energy is    14.3334 ev

!    total energy              =   -2923.83645373 Ry
     total all-electron energy =    -59563.363155 Ry
     estimated scf accuracy    <          4.3E-10 Ry
     smearing contrib. (-TS)   =      -0.00101950 Ry
     internal energy E=F+TS    =   -2923.83543422 Ry

     The total energy is F=E-TS. E is the sum of the following terms:
     one-electron contribution =    -263.20602476 Ry
     hartree contribution      =     244.44826383 Ry
     xc contribution           =    -239.89067855 Ry
     ewald contribution        =    -946.62098220 Ry
     one-center paw contrib.   =   -1718.56601255 Ry
      -> PAW hartree energy AE =      35.10573821 Ry
      -> PAW hartree energy PS =     -34.90579801 Ry
      -> PAW xc energy AE      =    -201.61574476 Ry
      -> PAW xc energy PS      =      17.14568397 Ry
      -> total E_H with PAW    =     244.64820403 Ry
      -> total E_XC with PAW   =    -424.36073934 Ry

     convergence has been achieved in  21 iterations

     Writing all to output data dir ./out/smo.save/ :
     XML data file, charge density, pseudopotentials, collected wavefunctions

     init_run     :      2.59s CPU      2.70s WALL (       1 calls)
     electrons    :    134.84s CPU    136.95s WALL (       1 calls)

     Called by init_run:
     wfcinit      :      1.94s CPU      1.99s WALL (       1 calls)
     wfcinit:atom :      0.01s CPU      0.01s WALL (      18 calls)
     wfcinit:wfcr :      1.85s CPU      1.90s WALL (      18 calls)
     potinit      :      0.19s CPU      0.19s WALL (       1 calls)
     hinit0       :      0.28s CPU      0.29s WALL (       1 calls)

     Called by electrons:
     c_bands      :    117.34s CPU    119.04s WALL (      21 calls)
     sum_band     :     14.37s CPU     14.74s WALL (      21 calls)
     v_of_rho     :      0.04s CPU      0.05s WALL (      22 calls)
     v_h          :      0.02s CPU      0.02s WALL (      22 calls)
     v_xc         :      0.03s CPU      0.03s WALL (      22 calls)
     newd         :      2.35s CPU      2.42s WALL (      22 calls)
     PAW_pot      :      0.73s CPU      0.74s WALL (      22 calls)
     mix_rho      :      0.08s CPU      0.08s WALL (      21 calls)

     Called by c_bands:
     init_us_2    :      0.79s CPU      0.81s WALL (     774 calls)
     init_us_2:cp :      0.79s CPU      0.80s WALL (     774 calls)
     cegterg      :    114.95s CPU    116.61s WALL (     378 calls)

     Called by sum_band:
     sum_band:wei :      0.01s CPU      0.01s WALL (      21 calls)
     sum_band:loo :     11.36s CPU     11.67s WALL (      21 calls)
     sum_band:buf :      0.20s CPU      0.20s WALL (     378 calls)
     sum_band:ini :      0.31s CPU      0.31s WALL (     378 calls)
     sum_band:cal :      2.16s CPU      2.29s WALL (     378 calls)
     sum_band:bec :      0.18s CPU      0.18s WALL (     378 calls)
     addusdens    :      2.67s CPU      2.70s WALL (      21 calls)
                                        0.00s GPU  (      21 calls)
     addusd:skk   :      0.03s CPU      0.03s WALL (      63 calls)
                                        0.00s GPU  (      63 calls)

     Called by *egterg:
     cdiaghg      :     37.26s CPU     37.30s WALL (    2379 calls)
     cegterg:over :      6.44s CPU      6.72s WALL (    2001 calls)
     cegterg:upda :      3.33s CPU      3.33s WALL (    2001 calls)
     cegterg:last :      4.63s CPU      4.64s WALL (     796 calls)
     h_psi        :     55.68s CPU     56.92s WALL (    2397 calls)
     s_psi        :      3.79s CPU      3.81s WALL (    2397 calls)
     g_psi        :      0.09s CPU      0.09s WALL (    2001 calls)

     Called by h_psi:
     h_psi:calbec :      6.80s CPU      7.19s WALL (    2397 calls)
     vloc_psi     :     43.91s CPU     44.71s WALL (    2397 calls)
     add_vuspsi   :      4.67s CPU      4.69s WALL (    2397 calls)

     General routines
     calbec       :      8.93s CPU      9.47s WALL (    2775 calls)
     fft          :      0.32s CPU      0.34s WALL (     130 calls)
     ffts         :      0.15s CPU      0.15s WALL (      43 calls)
     fftw         :     48.70s CPU     49.62s WALL (  231416 calls)
     interpolate  :      0.16s CPU      0.16s WALL (      22 calls)

     Parallel routines

     PAW routines
     PAW_pot      :      0.73s CPU      0.74s WALL (      22 calls)
     PAW_symme    :      0.01s CPU      0.01s WALL (      43 calls)

     PWSCF        :   2m18.16s CPU   2m20.87s WALL


   This run was terminated on:  10:52: 7  20Dec2025            

=------------------------------------------------------------------------------=
   JOB DONE.
=------------------------------------------------------------------------------=
