
             +---------------------------------------------------+
             |                                                   |
             |                   WANNIER90                       |
             |                                                   |
             +---------------------------------------------------+
             |                                                   |
             |        Welcome to the Maximally-Localized         |
             |        Generalized Wannier Functions code         |
             |            http://www.wannier.org                 |
             |                                                   |
             |                                                   |
             |  Wannier90 Developer Group:                       |
             |    Giovanni Pizzi    (Paul Scherrer Institute)    |
             |    Valerio Vitale    (University of Trieste)      |
             |    David Vanderbilt  (Rutgers University)         |
             |    Nicola Marzari    (EPFL)                       |
             |    Ivo Souza         (Universidad del Pais Vasco) |
             |    Arash A. Mostofi  (Imperial College London)    |
             |    Jonathan R. Yates (University of Oxford)       |
             |                                                   |
             |  For the full list of Wannier90 3.x authors,      |
             |  please check the code documentation and the      |
             |  README on the GitHub page of the code            |
             |                                                   |
             |                                                   |
             |  Please cite                                      |
             |                                                   |
             |  [ref] "Wannier90 as a community code:            |
             |        new features and applications",            |
             |        G. Pizzi et al., J. Phys. Cond. Matt. 32,  |
             |        165902 (2020).                             |
             |        http://doi.org/10.1088/1361-648X/ab51ff    |
             |                                                   |
             |  in any publications arising from the use of      |
             |  this code. For the method please cite            |
             |                                                   |
             |  [ref] "Maximally Localized Generalised Wannier   |
             |         Functions for Composite Energy Bands"     |
             |         N. Marzari and D. Vanderbilt              |
             |         Phys. Rev. B 56 12847 (1997)              |
             |                                                   |
             |  [ref] "Maximally Localized Wannier Functions     |
             |         for Entangled Energy Bands"               |
             |         I. Souza, N. Marzari and D. Vanderbilt    |
             |         Phys. Rev. B 65 035109 (2001)             |
             |                                                   |
             |                                                   |
             | Copyright (c) 1996-2020                           |
             |        The Wannier90 Developer Group and          |
             |        individual contributors                    |
             |                                                   |
             |      Release: 3.1.0        5th March    2020      |
             |                                                   |
             | This program is free software; you can            |
             | redistribute it and/or modify it under the terms  |
             | of the GNU General Public License as published by |
             | the Free Software Foundation; either version 2 of |
             | the License, or (at your option) any later version|
             |                                                   |
             | This program is distributed in the hope that it   |
             | will be useful, but WITHOUT ANY WARRANTY; without |
             | even the implied warranty of MERCHANTABILITY or   |
             | FITNESS FOR A PARTICULAR PURPOSE. See the GNU     |
             | General Public License for more details.          |
             |                                                   |
             | You should have received a copy of the GNU General|
             | Public License along with this program; if not,   |
             | write to the Free Software Foundation, Inc.,      |
             | 675 Mass Ave, Cambridge, MA 02139, USA.           |
             |                                                   |
             +---------------------------------------------------+
             |    Execution started on 20Dec2025 at 11:03:46     |
             +---------------------------------------------------+
 
 ******************************************************************************
 * -> Using CODATA 2006 constant values                                       *
 *    (http://physics.nist.gov/cuu/Constants/index.html)                      *
 * -> Using Bohr value from CODATA                                            *
 ******************************************************************************
 

 Running in parallel on  32 CPUs


                                    ------
                                    SYSTEM
                                    ------

                              Lattice Vectors (Ang)
                    a_1     5.600000   0.000000   0.000000
                    a_2     0.000000   5.600000   0.000000
                    a_3     0.000000   0.000000   7.700000

                   Unit Cell Volume:     241.47200  (Ang^3)

                        Reciprocal-Space Vectors (Ang^-1)
                    b_1     1.121997   0.000000   0.000000
                    b_2     0.000000   1.121997   0.000000
                    b_3     0.000000   0.000000   0.815998
  
 *----------------------------------------------------------------------------*
 |   Site       Fractional Coordinate          Cartesian Coordinate (Ang)     |
 +----------------------------------------------------------------------------+
 | sr   1   0.00000   0.50000   0.25000   |    0.00000   2.80000   1.92500    |
 | sr   2   0.00000   0.50000   0.75000   |    0.00000   2.80000   5.77500    |
 | sr   3   0.50000   0.00000   0.75000   |    2.80000   0.00000   5.77500    |
 | sr   4   0.50000   0.00000   0.25000   |    2.80000   0.00000   1.92500    |
 | mo   1   0.00000   0.00000   0.00000   |    0.00000   0.00000   0.00000    |
 | mo   2   0.00000   0.00000   0.50000   |    0.00000   0.00000   3.85000    |
 | mo   3   0.50000   0.50000   0.50000   |    2.80000   2.80000   3.85000    |
 | mo   4   0.50000   0.50000   0.00000   |    2.80000   2.80000   0.00000    |
 | o    1   0.25000   0.75000   0.00000   |    1.40000   4.20000   0.00000    |
 | o    2   0.25000   0.25000   0.00000   |    1.40000   1.40000   0.00000    |
 | o    3   0.75000   0.25000   0.50000   |    4.20000   1.40000   3.85000    |
 | o    4   0.75000   0.75000   0.50000   |    4.20000   4.20000   3.85000    |
 | o    5   0.75000   0.25000   0.00000   |    4.20000   1.40000   0.00000    |
 | o    6   0.75000   0.75000   0.00000   |    4.20000   4.20000   0.00000    |
 | o    7   0.25000   0.75000   0.50000   |    1.40000   4.20000   3.85000    |
 | o    8   0.25000   0.25000   0.50000   |    1.40000   1.40000   3.85000    |
 | o    9   0.00000   0.00000   0.25000   |    0.00000   0.00000   1.92500    |
 | o   10   0.00000   0.00000   0.75000   |    0.00000   0.00000   5.77500    |
 | o   11   0.50000   0.50000   0.75000   |    2.80000   2.80000   5.77500    |
 | o   12   0.50000   0.50000   0.25000   |    2.80000   2.80000   1.92500    |
 *----------------------------------------------------------------------------*
                                -----------
                                PROJECTIONS
                                -----------
  
 +----------------------------------------------------------------------------+
 |     Frac. Coord.   l mr  r        z-axis               x-axis          Z/a |
 +----------------------------------------------------------------------------+
 |  0.00  0.00  0.00  2  2  1  0.000  0.000  1.000  0.707  0.707  0.000   1.0 |
 |  0.00  0.00  0.00  2  3  1  0.000  0.000  1.000  0.707  0.707  0.000   1.0 |
 |  0.00  0.00  0.00  2  5  1  0.000  0.000  1.000  0.707  0.707  0.000   1.0 |
 |  0.00  0.00  0.50  2  2  1  0.000  0.000  1.000  0.707  0.707  0.000   1.0 |
 |  0.00  0.00  0.50  2  3  1  0.000  0.000  1.000  0.707  0.707  0.000   1.0 |
 |  0.00  0.00  0.50  2  5  1  0.000  0.000  1.000  0.707  0.707  0.000   1.0 |
 |  0.50  0.50  0.50  2  2  1  0.000  0.000  1.000  0.707  0.707  0.000   1.0 |
 |  0.50  0.50  0.50  2  3  1  0.000  0.000  1.000  0.707  0.707  0.000   1.0 |
 |  0.50  0.50  0.50  2  5  1  0.000  0.000  1.000  0.707  0.707  0.000   1.0 |
 |  0.50  0.50  0.00  2  2  1  0.000  0.000  1.000  0.707  0.707  0.000   1.0 |
 |  0.50  0.50  0.00  2  3  1  0.000  0.000  1.000  0.707  0.707  0.000   1.0 |
 |  0.50  0.50  0.00  2  5  1  0.000  0.000  1.000  0.707  0.707  0.000   1.0 |
 |  0.00  0.00  0.00  2  1  1  0.000  0.000  1.000  0.707  0.707  0.000   1.0 |
 |  0.00  0.00  0.00  2  4  1  0.000  0.000  1.000  0.707  0.707  0.000   1.0 |
 |  0.00  0.00  0.50  2  1  1  0.000  0.000  1.000  0.707  0.707  0.000   1.0 |
 |  0.00  0.00  0.50  2  4  1  0.000  0.000  1.000  0.707  0.707  0.000   1.0 |
 |  0.50  0.50  0.50  2  1  1  0.000  0.000  1.000  0.707  0.707  0.000   1.0 |
 |  0.50  0.50  0.50  2  4  1  0.000  0.000  1.000  0.707  0.707  0.000   1.0 |
 |  0.50  0.50  0.00  2  1  1  0.000  0.000  1.000  0.707  0.707  0.000   1.0 |
 |  0.50  0.50  0.00  2  4  1  0.000  0.000  1.000  0.707  0.707  0.000   1.0 |
 |  0.25  0.75  0.00  1  1  1  0.000  0.000  1.000  1.000  0.000  0.000   1.0 |
 |  0.25  0.75  0.00  1  2  1  0.000  0.000  1.000  1.000  0.000  0.000   1.0 |
 |  0.25  0.75  0.00  1  3  1  0.000  0.000  1.000  1.000  0.000  0.000   1.0 |
 |  0.25  0.25  0.00  1  1  1  0.000  0.000  1.000  1.000  0.000  0.000   1.0 |
 |  0.25  0.25  0.00  1  2  1  0.000  0.000  1.000  1.000  0.000  0.000   1.0 |
 |  0.25  0.25  0.00  1  3  1  0.000  0.000  1.000  1.000  0.000  0.000   1.0 |
 |  0.75  0.25  0.50  1  1  1  0.000  0.000  1.000  1.000  0.000  0.000   1.0 |
 |  0.75  0.25  0.50  1  2  1  0.000  0.000  1.000  1.000  0.000  0.000   1.0 |
 |  0.75  0.25  0.50  1  3  1  0.000  0.000  1.000  1.000  0.000  0.000   1.0 |
 |  0.75  0.75  0.50  1  1  1  0.000  0.000  1.000  1.000  0.000  0.000   1.0 |
 |  0.75  0.75  0.50  1  2  1  0.000  0.000  1.000  1.000  0.000  0.000   1.0 |
 |  0.75  0.75  0.50  1  3  1  0.000  0.000  1.000  1.000  0.000  0.000   1.0 |
 |  0.75  0.25  0.00  1  1  1  0.000  0.000  1.000  1.000  0.000  0.000   1.0 |
 |  0.75  0.25  0.00  1  2  1  0.000  0.000  1.000  1.000  0.000  0.000   1.0 |
 |  0.75  0.25  0.00  1  3  1  0.000  0.000  1.000  1.000  0.000  0.000   1.0 |
 |  0.75  0.75  0.00  1  1  1  0.000  0.000  1.000  1.000  0.000  0.000   1.0 |
 |  0.75  0.75  0.00  1  2  1  0.000  0.000  1.000  1.000  0.000  0.000   1.0 |
 |  0.75  0.75  0.00  1  3  1  0.000  0.000  1.000  1.000  0.000  0.000   1.0 |
 |  0.25  0.75  0.50  1  1  1  0.000  0.000  1.000  1.000  0.000  0.000   1.0 |
 |  0.25  0.75  0.50  1  2  1  0.000  0.000  1.000  1.000  0.000  0.000   1.0 |
 |  0.25  0.75  0.50  1  3  1  0.000  0.000  1.000  1.000  0.000  0.000   1.0 |
 |  0.25  0.25  0.50  1  1  1  0.000  0.000  1.000  1.000  0.000  0.000   1.0 |
 |  0.25  0.25  0.50  1  2  1  0.000  0.000  1.000  1.000  0.000  0.000   1.0 |
 |  0.25  0.25  0.50  1  3  1  0.000  0.000  1.000  1.000  0.000  0.000   1.0 |
 |  0.00  0.00  0.25  1  1  1  0.000  0.000  1.000  1.000  0.000  0.000   1.0 |
 |  0.00  0.00  0.25  1  2  1  0.000  0.000  1.000  1.000  0.000  0.000   1.0 |
 |  0.00  0.00  0.25  1  3  1  0.000  0.000  1.000  1.000  0.000  0.000   1.0 |
 |  0.00  0.00  0.75  1  1  1  0.000  0.000  1.000  1.000  0.000  0.000   1.0 |
 |  0.00  0.00  0.75  1  2  1  0.000  0.000  1.000  1.000  0.000  0.000   1.0 |
 |  0.00  0.00  0.75  1  3  1  0.000  0.000  1.000  1.000  0.000  0.000   1.0 |
 |  0.50  0.50  0.75  1  1  1  0.000  0.000  1.000  1.000  0.000  0.000   1.0 |
 |  0.50  0.50  0.75  1  2  1  0.000  0.000  1.000  1.000  0.000  0.000   1.0 |
 |  0.50  0.50  0.75  1  3  1  0.000  0.000  1.000  1.000  0.000  0.000   1.0 |
 |  0.50  0.50  0.25  1  1  1  0.000  0.000  1.000  1.000  0.000  0.000   1.0 |
 |  0.50  0.50  0.25  1  2  1  0.000  0.000  1.000  1.000  0.000  0.000   1.0 |
 |  0.50  0.50  0.25  1  3  1  0.000  0.000  1.000  1.000  0.000  0.000   1.0 |
 +----------------------------------------------------------------------------+
  
                                ------------
                                K-POINT GRID
                                ------------
  
             Grid size =  5 x  5 x  5      Total points =  125
  
 *----------------------------------------------------------------------------*
 | k-point      Fractional Coordinate        Cartesian Coordinate (Ang^-1)    |
 +----------------------------------------------------------------------------+
 |     1    0.00000   0.00000   0.00000   |    0.00000   0.00000   0.00000    |
 |     2    0.00000   0.00000   0.20000   |    0.00000   0.00000   0.16320    |
 |     3    0.00000   0.00000   0.40000   |    0.00000   0.00000   0.32640    |
 |     4    0.00000   0.00000   0.60000   |    0.00000   0.00000   0.48960    |
 |     5    0.00000   0.00000   0.80000   |    0.00000   0.00000   0.65280    |
 |     6    0.00000   0.20000   0.00000   |    0.00000   0.22440   0.00000    |
 |     7    0.00000   0.20000   0.20000   |    0.00000   0.22440   0.16320    |
 |     8    0.00000   0.20000   0.40000   |    0.00000   0.22440   0.32640    |
 |     9    0.00000   0.20000   0.60000   |    0.00000   0.22440   0.48960    |
 |    10    0.00000   0.20000   0.80000   |    0.00000   0.22440   0.65280    |
 |    11    0.00000   0.40000   0.00000   |    0.00000   0.44880   0.00000    |
 |    12    0.00000   0.40000   0.20000   |    0.00000   0.44880   0.16320    |
 |    13    0.00000   0.40000   0.40000   |    0.00000   0.44880   0.32640    |
 |    14    0.00000   0.40000   0.60000   |    0.00000   0.44880   0.48960    |
 |    15    0.00000   0.40000   0.80000   |    0.00000   0.44880   0.65280    |
 |    16    0.00000   0.60000   0.00000   |    0.00000   0.67320   0.00000    |
 |    17    0.00000   0.60000   0.20000   |    0.00000   0.67320   0.16320    |
 |    18    0.00000   0.60000   0.40000   |    0.00000   0.67320   0.32640    |
 |    19    0.00000   0.60000   0.60000   |    0.00000   0.67320   0.48960    |
 |    20    0.00000   0.60000   0.80000   |    0.00000   0.67320   0.65280    |
 |    21    0.00000   0.80000   0.00000   |    0.00000   0.89760   0.00000    |
 |    22    0.00000   0.80000   0.20000   |    0.00000   0.89760   0.16320    |
 |    23    0.00000   0.80000   0.40000   |    0.00000   0.89760   0.32640    |
 |    24    0.00000   0.80000   0.60000   |    0.00000   0.89760   0.48960    |
 |    25    0.00000   0.80000   0.80000   |    0.00000   0.89760   0.65280    |
 |    26    0.20000   0.00000   0.00000   |    0.22440   0.00000   0.00000    |
 |    27    0.20000   0.00000   0.20000   |    0.22440   0.00000   0.16320    |
 |    28    0.20000   0.00000   0.40000   |    0.22440   0.00000   0.32640    |
 |    29    0.20000   0.00000   0.60000   |    0.22440   0.00000   0.48960    |
 |    30    0.20000   0.00000   0.80000   |    0.22440   0.00000   0.65280    |
 |    31    0.20000   0.20000   0.00000   |    0.22440   0.22440   0.00000    |
 |    32    0.20000   0.20000   0.20000   |    0.22440   0.22440   0.16320    |
 |    33    0.20000   0.20000   0.40000   |    0.22440   0.22440   0.32640    |
 |    34    0.20000   0.20000   0.60000   |    0.22440   0.22440   0.48960    |
 |    35    0.20000   0.20000   0.80000   |    0.22440   0.22440   0.65280    |
 |    36    0.20000   0.40000   0.00000   |    0.22440   0.44880   0.00000    |
 |    37    0.20000   0.40000   0.20000   |    0.22440   0.44880   0.16320    |
 |    38    0.20000   0.40000   0.40000   |    0.22440   0.44880   0.32640    |
 |    39    0.20000   0.40000   0.60000   |    0.22440   0.44880   0.48960    |
 |    40    0.20000   0.40000   0.80000   |    0.22440   0.44880   0.65280    |
 |    41    0.20000   0.60000   0.00000   |    0.22440   0.67320   0.00000    |
 |    42    0.20000   0.60000   0.20000   |    0.22440   0.67320   0.16320    |
 |    43    0.20000   0.60000   0.40000   |    0.22440   0.67320   0.32640    |
 |    44    0.20000   0.60000   0.60000   |    0.22440   0.67320   0.48960    |
 |    45    0.20000   0.60000   0.80000   |    0.22440   0.67320   0.65280    |
 |    46    0.20000   0.80000   0.00000   |    0.22440   0.89760   0.00000    |
 |    47    0.20000   0.80000   0.20000   |    0.22440   0.89760   0.16320    |
 |    48    0.20000   0.80000   0.40000   |    0.22440   0.89760   0.32640    |
 |    49    0.20000   0.80000   0.60000   |    0.22440   0.89760   0.48960    |
 |    50    0.20000   0.80000   0.80000   |    0.22440   0.89760   0.65280    |
 |    51    0.40000   0.00000   0.00000   |    0.44880   0.00000   0.00000    |
 |    52    0.40000   0.00000   0.20000   |    0.44880   0.00000   0.16320    |
 |    53    0.40000   0.00000   0.40000   |    0.44880   0.00000   0.32640    |
 |    54    0.40000   0.00000   0.60000   |    0.44880   0.00000   0.48960    |
 |    55    0.40000   0.00000   0.80000   |    0.44880   0.00000   0.65280    |
 |    56    0.40000   0.20000   0.00000   |    0.44880   0.22440   0.00000    |
 |    57    0.40000   0.20000   0.20000   |    0.44880   0.22440   0.16320    |
 |    58    0.40000   0.20000   0.40000   |    0.44880   0.22440   0.32640    |
 |    59    0.40000   0.20000   0.60000   |    0.44880   0.22440   0.48960    |
 |    60    0.40000   0.20000   0.80000   |    0.44880   0.22440   0.65280    |
 |    61    0.40000   0.40000   0.00000   |    0.44880   0.44880   0.00000    |
 |    62    0.40000   0.40000   0.20000   |    0.44880   0.44880   0.16320    |
 |    63    0.40000   0.40000   0.40000   |    0.44880   0.44880   0.32640    |
 |    64    0.40000   0.40000   0.60000   |    0.44880   0.44880   0.48960    |
 |    65    0.40000   0.40000   0.80000   |    0.44880   0.44880   0.65280    |
 |    66    0.40000   0.60000   0.00000   |    0.44880   0.67320   0.00000    |
 |    67    0.40000   0.60000   0.20000   |    0.44880   0.67320   0.16320    |
 |    68    0.40000   0.60000   0.40000   |    0.44880   0.67320   0.32640    |
 |    69    0.40000   0.60000   0.60000   |    0.44880   0.67320   0.48960    |
 |    70    0.40000   0.60000   0.80000   |    0.44880   0.67320   0.65280    |
 |    71    0.40000   0.80000   0.00000   |    0.44880   0.89760   0.00000    |
 |    72    0.40000   0.80000   0.20000   |    0.44880   0.89760   0.16320    |
 |    73    0.40000   0.80000   0.40000   |    0.44880   0.89760   0.32640    |
 |    74    0.40000   0.80000   0.60000   |    0.44880   0.89760   0.48960    |
 |    75    0.40000   0.80000   0.80000   |    0.44880   0.89760   0.65280    |
 |    76    0.60000   0.00000   0.00000   |    0.67320   0.00000   0.00000    |
 |    77    0.60000   0.00000   0.20000   |    0.67320   0.00000   0.16320    |
 |    78    0.60000   0.00000   0.40000   |    0.67320   0.00000   0.32640    |
 |    79    0.60000   0.00000   0.60000   |    0.67320   0.00000   0.48960    |
 |    80    0.60000   0.00000   0.80000   |    0.67320   0.00000   0.65280    |
 |    81    0.60000   0.20000   0.00000   |    0.67320   0.22440   0.00000    |
 |    82    0.60000   0.20000   0.20000   |    0.67320   0.22440   0.16320    |
 |    83    0.60000   0.20000   0.40000   |    0.67320   0.22440   0.32640    |
 |    84    0.60000   0.20000   0.60000   |    0.67320   0.22440   0.48960    |
 |    85    0.60000   0.20000   0.80000   |    0.67320   0.22440   0.65280    |
 |    86    0.60000   0.40000   0.00000   |    0.67320   0.44880   0.00000    |
 |    87    0.60000   0.40000   0.20000   |    0.67320   0.44880   0.16320    |
 |    88    0.60000   0.40000   0.40000   |    0.67320   0.44880   0.32640    |
 |    89    0.60000   0.40000   0.60000   |    0.67320   0.44880   0.48960    |
 |    90    0.60000   0.40000   0.80000   |    0.67320   0.44880   0.65280    |
 |    91    0.60000   0.60000   0.00000   |    0.67320   0.67320   0.00000    |
 |    92    0.60000   0.60000   0.20000   |    0.67320   0.67320   0.16320    |
 |    93    0.60000   0.60000   0.40000   |    0.67320   0.67320   0.32640    |
 |    94    0.60000   0.60000   0.60000   |    0.67320   0.67320   0.48960    |
 |    95    0.60000   0.60000   0.80000   |    0.67320   0.67320   0.65280    |
 |    96    0.60000   0.80000   0.00000   |    0.67320   0.89760   0.00000    |
 |    97    0.60000   0.80000   0.20000   |    0.67320   0.89760   0.16320    |
 |    98    0.60000   0.80000   0.40000   |    0.67320   0.89760   0.32640    |
 |    99    0.60000   0.80000   0.60000   |    0.67320   0.89760   0.48960    |
 |   100    0.60000   0.80000   0.80000   |    0.67320   0.89760   0.65280    |
 |   101    0.80000   0.00000   0.00000   |    0.89760   0.00000   0.00000    |
 |   102    0.80000   0.00000   0.20000   |    0.89760   0.00000   0.16320    |
 |   103    0.80000   0.00000   0.40000   |    0.89760   0.00000   0.32640    |
 |   104    0.80000   0.00000   0.60000   |    0.89760   0.00000   0.48960    |
 |   105    0.80000   0.00000   0.80000   |    0.89760   0.00000   0.65280    |
 |   106    0.80000   0.20000   0.00000   |    0.89760   0.22440   0.00000    |
 |   107    0.80000   0.20000   0.20000   |    0.89760   0.22440   0.16320    |
 |   108    0.80000   0.20000   0.40000   |    0.89760   0.22440   0.32640    |
 |   109    0.80000   0.20000   0.60000   |    0.89760   0.22440   0.48960    |
 |   110    0.80000   0.20000   0.80000   |    0.89760   0.22440   0.65280    |
 |   111    0.80000   0.40000   0.00000   |    0.89760   0.44880   0.00000    |
 |   112    0.80000   0.40000   0.20000   |    0.89760   0.44880   0.16320    |
 |   113    0.80000   0.40000   0.40000   |    0.89760   0.44880   0.32640    |
 |   114    0.80000   0.40000   0.60000   |    0.89760   0.44880   0.48960    |
 |   115    0.80000   0.40000   0.80000   |    0.89760   0.44880   0.65280    |
 |   116    0.80000   0.60000   0.00000   |    0.89760   0.67320   0.00000    |
 |   117    0.80000   0.60000   0.20000   |    0.89760   0.67320   0.16320    |
 |   118    0.80000   0.60000   0.40000   |    0.89760   0.67320   0.32640    |
 |   119    0.80000   0.60000   0.60000   |    0.89760   0.67320   0.48960    |
 |   120    0.80000   0.60000   0.80000   |    0.89760   0.67320   0.65280    |
 |   121    0.80000   0.80000   0.00000   |    0.89760   0.89760   0.00000    |
 |   122    0.80000   0.80000   0.20000   |    0.89760   0.89760   0.16320    |
 |   123    0.80000   0.80000   0.40000   |    0.89760   0.89760   0.32640    |
 |   124    0.80000   0.80000   0.60000   |    0.89760   0.89760   0.48960    |
 |   125    0.80000   0.80000   0.80000   |    0.89760   0.89760   0.65280    |
 *----------------------------------------------------------------------------*
  
  
 *---------------------------------- MAIN ------------------------------------*
 |  Number of Wannier Functions               :                56             |
 |  Number of Objective Wannier Functions     :                56             |
 |  Number of input Bloch states              :                56             |
 |  Output verbosity (1=low, 5=high)          :                 2             |
 |  Timing Level (1=low, 5=high)              :                 1             |
 |  Optimisation (0=memory, 3=speed)          :                 3             |
 |  Length Unit                               :               Ang             |
 |  Post-processing setup (write *.nnkp)      :                 F             |
 |  Using Gamma-only branch of algorithms     :                 F             |
 *----------------------------------------------------------------------------*
 *------------------------------- WANNIERISE ---------------------------------*
 |  Total number of iterations                :              5000             |
 |  Number of CG steps before reset           :                 5             |
 |  Trial step length for line search         :             2.000             |
 |  Convergence tolerence                     :         0.100E-11             |
 |  Convergence window                        :                 5             |
 |  Iterations between writing output         :               200             |
 |  Iterations between backing up to disk     :               100             |
 |  Write r^2_nm to file                      :                 F             |
 |  Write xyz WF centres to file              :                 F             |
 |  Write on-site energies <0n|H|0n> to file  :                 F             |
 |  Use guiding centre to control phases      :                 F             |
 |  Use phases for initial projections        :                 F             |
 *----------------------------------------------------------------------------*
 *-------------------------------- PLOTTING ----------------------------------*
 |  Plotting interpolated bandstructure       :                 T             |
 |   Number of K-path sections                :                 7             |
 |   Divisions along first K-path section     :               100             |
 |   Output format                            :           gnuplot             |
 |   Output mode                              :               s-k             |
 *----------------------------------------------------------------------------*
 |   K-space path sections:                                                   |
 |    From: G       0.000  0.000  0.000     To: X       0.000  0.500  0.000   |
 |    From: X       0.000  0.500  0.000     To: M       0.500  0.500  0.000   |
 |    From: M       0.500  0.500  0.000     To: G       0.000  0.000  0.000   |
 |    From: G       0.000  0.000  0.000     To: Z       0.000  0.000  0.500   |
 |    From: Z       0.000  0.000  0.500     To: R       0.000  0.500  0.500   |
 |    From: R       0.000  0.500  0.500     To: A       0.500  0.500  0.500   |
 |    From: A       0.500  0.500  0.500     To: Z       0.000  0.000  0.500   |
 *----------------------------------------------------------------------------*
 |  Plotting Hamiltonian in WF basis          :                 T             |
 *----------------------------------------------------------------------------*

 *---------------------------------- K-MESH ----------------------------------*
 +----------------------------------------------------------------------------+
 |                    Distance to Nearest-Neighbour Shells                    |
 |                    ------------------------------------                    |
 |          Shell             Distance (Ang^-1)          Multiplicity         |
 |          -----             -----------------          ------------         |
 |             1                   0.163200                      2            |
 |             2                   0.224399                      4            |
 |             3                   0.277469                      8            |
 |             4                   0.317349                      4            |
 |             5                   0.326399                      2            |
 |             6                   0.356853                      8            |
 |             7                   0.396095                      8            |
 |             8                   0.448799                      4            |
 |             9                   0.455244                      8            |
 |            10                   0.477551                      8            |
 |            11                   0.489599                      2            |
 |            12                   0.501772                      8            |
 |            13                   0.527645                     16            |
 |            14                   0.538574                      8            |
 |            15                   0.554939                      8            |
 |            16                   0.583453                      8            |
 |            17                   0.598592                     16            |
 |            18                   0.634698                      4            |
 |            19                   0.652798                      2            |
 |            20                   0.655344                      8            |
 |            21                   0.664174                      8            |
 |            22                   0.673198                      4            |
 |            23                   0.690290                      8            |
 |            24                   0.692698                      8            |
 |            25                   0.701058                     16            |
 |            26                   0.709613                      8            |
 |            27                   0.713707                      8            |
 |            28                   0.725849                      8            |
 |            29                   0.728138                     16            |
 |            30                   0.748153                      8            |
 |            31                   0.781081                     16            |
 |            32                   0.792191                      8            |
 |            33                   0.801591                      8            |
 |            34                   0.809084                      8            |
 |            35                   0.815998                      2            |
 |            36                   0.823360                     16            |
 +----------------------------------------------------------------------------+
 | The b-vectors are chosen automatically                                     |
 | Shell:  1 w_b   18.7729156      (Ang^2)                                    |
 | Shell:  1 w_b   18.7729156      (Ang^2)                                    |
 | Shell:  2 w_b    9.9294760      (Ang^2)                                    |
 | The following shells are used:   1,  2                                     |
 +----------------------------------------------------------------------------+
 |                        Shell   # Nearest-Neighbours                        |
 |                        -----   --------------------                        |
 |                          1               2                                 |
 |                          2               4                                 |
 +----------------------------------------------------------------------------+
 | Completeness relation is fully satisfied [Eq. (B1), PRB 56, 12847 (1997)]  |
 +----------------------------------------------------------------------------+
 |                  b_k Vectors (Ang^-1) and Weights (Ang^2)                  |
 |                  ----------------------------------------                  |
 |            No.         b_k(x)      b_k(y)      b_k(z)        w_b           |
 |            ---        --------------------------------     --------        |
 |             1         0.000000    0.000000    0.163200    18.772916        |
 |             2         0.000000    0.000000   -0.163200    18.772916        |
 |             3         0.000000    0.224399    0.000000     9.929476        |
 |             4         0.224399    0.000000    0.000000     9.929476        |
 |             5         0.000000   -0.224399    0.000000     9.929476        |
 |             6        -0.224399    0.000000    0.000000     9.929476        |
 +----------------------------------------------------------------------------+
 |                           b_k Directions (Ang^-1)                          |
 |                           -----------------------                          |
 |            No.           x           y           z                         |
 |            ---        --------------------------------                     |
 |             1         0.000000    0.000000    0.163200                     |
 |             2         0.000000    0.224399    0.000000                     |
 |             3         0.224399    0.000000    0.000000                     |
 +----------------------------------------------------------------------------+
  
 Starting a new Wannier90 calculation ...


 Reading overlaps from smo.mmn    :  Created on 20Dec2025 at 11: 3:29

 Reading projections from smo.amn :  Created on 20Dec2025 at 11: 2:44

 *------------------------------- WANNIERISE ---------------------------------*
 +--------------------------------------------------------------------+<-- CONV
 | Iter  Delta Spread     RMS Gradient      Spread (Ang^2)      Time  |<-- CONV
 +--------------------------------------------------------------------+<-- CONV

 ------------------------------------------------------------------------------
 Initial State
  WF centre and spread    1  (  0.000004,  0.000017, -0.000009 )     1.55229467
  WF centre and spread    2  (  0.000025,  0.000002,  0.000029 )     1.55245705
  WF centre and spread    3  ( -0.000009,  0.000030, -0.000029 )     1.51453461
  WF centre and spread    4  (  0.000014, -0.000016,  3.850015 )     1.55169495
  WF centre and spread    5  (  0.000045,  0.000010,  3.850010 )     1.55176911
  WF centre and spread    6  (  0.000019, -0.000034,  3.850041 )     1.50641719
  WF centre and spread    7  (  2.799996,  2.799999,  3.849955 )     1.53732103
  WF centre and spread    8  (  2.799953,  2.799977,  3.849998 )     1.53706192
  WF centre and spread    9  (  2.800096,  2.800024,  3.850003 )     1.50925787
  WF centre and spread   10  (  2.800004,  2.799981,  0.000019 )     1.53482420
  WF centre and spread   11  (  2.799989,  2.800005, -0.000007 )     1.53447172
  WF centre and spread   12  (  2.799913,  2.799979, -0.000010 )     1.51129610
  WF centre and spread   13  (  0.164046, -0.068032, -0.146106 )    50.60321940
  WF centre and spread   14  ( -0.118501,  0.092485, -0.063617 )    41.36866239
  WF centre and spread   15  (  0.093414, -0.110294,  3.896342 )    55.09317627
  WF centre and spread   16  (  0.063015, -0.028076,  3.915191 )    35.78291178
  WF centre and spread   17  (  2.856917,  2.786363,  3.727599 )    47.75582974
  WF centre and spread   18  (  2.694779,  2.868458,  3.895945 )    36.00198066
  WF centre and spread   19  (  2.700377,  2.594981, -0.078187 )    50.43950622
  WF centre and spread   20  (  2.877509,  2.800166, -0.035479 )    40.48764270
  WF centre and spread   21  (  1.399974,  4.200053,  0.000034 )     1.21359501
  WF centre and spread   22  (  1.396679,  4.189952, -0.007160 )     7.87467710
  WF centre and spread   23  (  1.399390,  4.191003, -0.007136 )     7.89172085
  WF centre and spread   24  (  1.400044,  1.400000, -0.000049 )     1.21494504
  WF centre and spread   25  (  1.400055,  1.409849,  0.003067 )     7.86791862
  WF centre and spread   26  (  1.407051,  1.406149,  0.003204 )     7.86186360
  WF centre and spread   27  (  4.199888,  1.400052,  3.849995 )     1.21222336
  WF centre and spread   28  (  4.190538,  1.409132,  3.854664 )     7.14862686
  WF centre and spread   29  (  4.177601,  1.397927,  3.854326 )     7.13283154
  WF centre and spread   30  (  4.200022,  4.199909,  3.849918 )     1.21336856
  WF centre and spread   31  (  4.206100,  4.192925,  3.858260 )     6.98214630
  WF centre and spread   32  (  4.196062,  4.200131,  3.855404 )     7.00333239
  WF centre and spread   33  (  4.200047,  1.399964, -0.000030 )     1.21605333
  WF centre and spread   34  (  4.195872,  1.396704, -0.003987 )     7.78204321
  WF centre and spread   35  (  4.194651,  1.392563, -0.004917 )     7.78263972
  WF centre and spread   36  (  4.200023,  4.199976,  0.000091 )     1.21432550
  WF centre and spread   37  (  4.196940,  4.199687,  0.004899 )     7.88343779
  WF centre and spread   38  (  4.195366,  4.204102,  0.004924 )     7.83199357
  WF centre and spread   39  (  1.400089,  4.199877,  3.850005 )     1.21399997
  WF centre and spread   40  (  1.392372,  4.187088,  3.853667 )     7.08668553
  WF centre and spread   41  (  1.401802,  4.198744,  3.853753 )     7.06762430
  WF centre and spread   42  (  1.400076,  1.399995,  3.850075 )     1.21261814
  WF centre and spread   43  (  1.405556,  1.410723,  3.855867 )     6.99868567
  WF centre and spread   44  (  1.413691,  1.399606,  3.857597 )     7.03305949
  WF centre and spread   45  (  0.000231, -0.002261,  1.869886 )    13.89315646
  WF centre and spread   46  ( -0.000081,  0.000094,  1.925011 )     1.10330785
  WF centre and spread   47  ( -0.000019,  0.000039,  1.924969 )     1.10223684
  WF centre and spread   48  (  0.008342, -0.005874,  5.873653 )    14.05638793
  WF centre and spread   49  (  0.000126,  0.000056,  5.775063 )     1.10196564
  WF centre and spread   50  ( -0.000047,  0.000129,  5.775033 )     1.10254407
  WF centre and spread   51  (  2.800660,  2.786662,  5.835888 )    13.40608304
  WF centre and spread   52  (  2.799961,  2.799928,  5.774984 )     1.09576087
  WF centre and spread   53  (  2.800009,  2.799882,  5.774911 )     1.09517337
  WF centre and spread   54  (  2.801229,  2.788736,  1.851232 )    13.51334527
  WF centre and spread   55  (  2.800029,  2.799884,  1.925042 )     1.09508967
  WF centre and spread   56  (  2.800027,  2.800023,  1.925047 )     1.09531985
  Sum of centres and spreads (112.111959,111.689433,130.678889 )   568.52711588

      0     0.569E+03     0.0000000000      568.5271158822       0.00  <-- CONV
        O_D=     34.7033625 O_OD=    371.6125095 O_TOT=    568.5271159 <-- SPRD
 ------------------------------------------------------------------------------
 Cycle:      1
  WF centre and spread    1  (  0.000003,  0.000019, -0.000009 )     1.55100252
  WF centre and spread    2  (  0.000023, -0.000000,  0.000031 )     1.55120599
  WF centre and spread    3  ( -0.000006,  0.000030, -0.000029 )     1.51416131
  WF centre and spread    4  (  0.000013, -0.000016,  3.850016 )     1.55038496
  WF centre and spread    5  (  0.000044,  0.000010,  3.850010 )     1.55047480
  WF centre and spread    6  (  0.000021, -0.000034,  3.850040 )     1.50570300
  WF centre and spread    7  (  2.799996,  2.799999,  3.849962 )     1.53617951
  WF centre and spread    8  (  2.799954,  2.799978,  3.849998 )     1.53591677
  WF centre and spread    9  (  2.800097,  2.800023,  3.850007 )     1.50867147
  WF centre and spread   10  (  2.800005,  2.799978,  0.000015 )     1.53342980
  WF centre and spread   11  (  2.799991,  2.800007, -0.000005 )     1.53306625
  WF centre and spread   12  (  2.799908,  2.799979, -0.000013 )     1.51068559
  WF centre and spread   13  (  0.160104, -0.068739, -0.046620 )    48.73615120
  WF centre and spread   14  ( -0.119555,  0.092897, -0.062199 )    41.33756996
  WF centre and spread   15  (  0.090387, -0.106546,  3.904822 )    52.08957259
  WF centre and spread   16  (  0.062834, -0.028629,  3.915035 )    35.72463199
  WF centre and spread   17  (  2.857953,  2.787898,  3.738614 )    47.40543765
  WF centre and spread   18  (  2.694112,  2.867711,  3.896885 )    35.96327289
  WF centre and spread   19  (  2.703840,  2.600546, -0.059435 )    49.70635414
  WF centre and spread   20  (  2.877720,  2.799775, -0.035387 )    40.46554852
  WF centre and spread   21  (  1.399969,  4.200055,  0.000040 )     1.21294936
  WF centre and spread   22  (  1.396707,  4.189975, -0.007121 )     7.86173819
  WF centre and spread   23  (  1.399384,  4.190999, -0.007121 )     7.87822775
  WF centre and spread   24  (  1.400035,  1.399994, -0.000046 )     1.21421861
  WF centre and spread   25  (  1.400006,  1.409767,  0.003066 )     7.85276551
  WF centre and spread   26  (  1.406981,  1.406074,  0.003218 )     7.84619135
  WF centre and spread   27  (  4.199885,  1.400052,  3.849994 )     1.21158100
  WF centre and spread   28  (  4.190561,  1.409169,  3.854668 )     7.13338406
  WF centre and spread   29  (  4.177573,  1.397931,  3.854339 )     7.11660035
  WF centre and spread   30  (  4.200024,  4.199910,  3.849913 )     1.21284469
  WF centre and spread   31  (  4.206030,  4.192787,  3.858207 )     6.97281533
  WF centre and spread   32  (  4.195960,  4.200000,  3.855339 )     6.99347376
  WF centre and spread   33  (  4.200052,  1.399963, -0.000028 )     1.21531795
  WF centre and spread   34  (  4.195868,  1.396631, -0.003960 )     7.76844578
  WF centre and spread   35  (  4.194708,  1.392499, -0.004862 )     7.76907167
  WF centre and spread   36  (  4.200030,  4.199982,  0.000105 )     1.21352765
  WF centre and spread   37  (  4.196944,  4.199857,  0.004969 )     7.87108182
  WF centre and spread   38  (  4.195455,  4.204239,  0.005009 )     7.81931052
  WF centre and spread   39  (  1.400088,  4.199874,  3.849993 )     1.21349122
  WF centre and spread   40  (  1.392371,  4.187050,  3.853760 )     7.07251745
  WF centre and spread   41  (  1.401859,  4.198723,  3.853854 )     7.05289938
  WF centre and spread   42  (  1.400073,  1.399992,  3.850066 )     1.21216053
  WF centre and spread   43  (  1.405577,  1.410754,  3.855820 )     6.98892270
  WF centre and spread   44  (  1.413708,  1.399651,  3.857538 )     7.02280331
  WF centre and spread   45  (  0.000469, -0.002121,  1.867458 )    13.95255763
  WF centre and spread   46  ( -0.000089,  0.000095,  1.925007 )     1.10278609
  WF centre and spread   47  ( -0.000019,  0.000036,  1.924969 )     1.10172587
  WF centre and spread   48  (  0.008812, -0.006126,  5.874744 )    14.11569588
  WF centre and spread   49  (  0.000125,  0.000056,  5.775067 )     1.10133309
  WF centre and spread   50  ( -0.000046,  0.000127,  5.775034 )     1.10190930
  WF centre and spread   51  (  2.800562,  2.786560,  5.836519 )    13.39325756
  WF centre and spread   52  (  2.799960,  2.799927,  5.774971 )     1.09541191
  WF centre and spread   53  (  2.800010,  2.799878,  5.774906 )     1.09470693
  WF centre and spread   54  (  2.801132,  2.788567,  1.850624 )    13.50108548
  WF centre and spread   55  (  2.800042,  2.799883,  1.925053 )     1.09479146
  WF centre and spread   56  (  2.800026,  2.800019,  1.925054 )     1.09490322
  Sum of centres and spreads (112.108277,111.697716,130.817901 )   562.28592525

      1    -0.624E+01    58.1501188335      562.2859252460       0.07  <-- CONV
        O_D=     28.9759398 O_OD=    371.0987416 O_TOT=    562.2859252 <-- SPRD
 Delta: O_D= -0.5727423E+01 O_OD= -0.5137679E+00 O_TOT= -0.6241191E+01 <-- DLTA
 ------------------------------------------------------------------------------
 Cycle:    200
  WF centre and spread    1  ( -0.000116, -0.000077, -0.000188 )     1.37735183
  WF centre and spread    2  ( -0.000216,  0.000157,  0.000540 )     1.37797217
  WF centre and spread    3  ( -0.000288,  0.000027,  0.000125 )     1.39560115
  WF centre and spread    4  (  0.000040,  0.000039,  3.849998 )     1.37152988
  WF centre and spread    5  ( -0.000095,  0.000210,  3.850142 )     1.37374002
  WF centre and spread    6  (  0.000311,  0.000046,  3.849966 )     1.37447823
  WF centre and spread    7  (  2.799918,  2.799868,  3.849689 )     1.36877095
  WF centre and spread    8  (  2.799879,  2.800064,  3.850484 )     1.37180871
  WF centre and spread    9  (  2.800187,  2.799838,  3.849979 )     1.38332602
  WF centre and spread   10  (  2.799790,  2.799738, -0.000960 )     1.36501040
  WF centre and spread   11  (  2.799905,  2.800176,  0.000071 )     1.36575094
  WF centre and spread   12  (  2.800250,  2.800311, -0.000045 )     1.38373196
  WF centre and spread   13  (  0.298531,  0.061652,  0.187697 )    31.27297639
  WF centre and spread   14  ( -0.193495,  0.047254,  0.054647 )    27.41676527
  WF centre and spread   15  ( -0.140175, -0.231873,  3.575861 )    37.62829664
  WF centre and spread   16  ( -0.100389,  0.071511,  3.854918 )    15.92012570
  WF centre and spread   17  (  2.663905,  3.025721,  3.967572 )    34.05415121
  WF centre and spread   18  (  2.808507,  2.671541,  3.819969 )    20.70942932
  WF centre and spread   19  (  2.483584,  2.408409, -0.167501 )    35.62170620
  WF centre and spread   20  (  3.044148,  2.939008,  0.095130 )    29.68713294
  WF centre and spread   21  (  1.399392,  4.200476,  0.002081 )     1.10971314
  WF centre and spread   22  (  1.401048,  4.202785, -0.001060 )     1.91567958
  WF centre and spread   23  (  1.396018,  4.201999, -0.000735 )     1.94695812
  WF centre and spread   24  (  1.399738,  1.399584, -0.000410 )     1.11003754
  WF centre and spread   25  (  1.396710,  1.403685,  0.004342 )     1.92728619
  WF centre and spread   26  (  1.402386,  1.401621,  0.005270 )     1.92727571
  WF centre and spread   27  (  4.200005,  1.400050,  3.850125 )     1.08827121
  WF centre and spread   28  (  4.203859,  1.418908,  3.850032 )     1.88003700
  WF centre and spread   29  (  4.177589,  1.393179,  3.850193 )     1.84252927
  WF centre and spread   30  (  4.199688,  4.199717,  3.850864 )     1.08975001
  WF centre and spread   31  (  4.201997,  4.185092,  3.851574 )     1.87463321
  WF centre and spread   32  (  4.183658,  4.201650,  3.852925 )     1.87056918
  WF centre and spread   33  (  4.200496,  1.399666,  0.000201 )     1.11228349
  WF centre and spread   34  (  4.205955,  1.399927,  0.001582 )     1.92543620
  WF centre and spread   35  (  4.201001,  1.392605,  0.001804 )     1.94041259
  WF centre and spread   36  (  4.200090,  4.200109,  0.000396 )     1.10931233
  WF centre and spread   37  (  4.201231,  4.198757,  0.003802 )     1.93062353
  WF centre and spread   38  (  4.201448,  4.200440,  0.003729 )     1.92367939
  WF centre and spread   39  (  1.400047,  4.199856,  3.850829 )     1.08940872
  WF centre and spread   40  (  1.389156,  4.182352,  3.848316 )     1.87509413
  WF centre and spread   41  (  1.414702,  4.209839,  3.848564 )     1.86885912
  WF centre and spread   42  (  1.400357,  1.400165,  3.850295 )     1.08698605
  WF centre and spread   43  (  1.392469,  1.414750,  3.851084 )     1.84369620
  WF centre and spread   44  (  1.409206,  1.395669,  3.850343 )     1.88003316
  WF centre and spread   45  ( -0.007557, -0.006947,  1.883717 )     2.74247885
  WF centre and spread   46  (  0.000143,  0.000289,  1.924784 )     1.03032913
  WF centre and spread   47  ( -0.000053, -0.001272,  1.924918 )     1.03130182
  WF centre and spread   48  ( -0.002682, -0.001488,  5.827825 )     2.65691194
  WF centre and spread   49  (  0.000402,  0.000292,  5.774885 )     1.02837575
  WF centre and spread   50  (  0.000361, -0.000563,  5.775053 )     1.03024754
  WF centre and spread   51  (  2.790146,  2.796643,  5.817332 )     2.70814553
  WF centre and spread   52  (  2.800215,  2.800555,  5.774553 )     1.01713032
  WF centre and spread   53  (  2.799999,  2.799497,  5.774338 )     1.01973549
  WF centre and spread   54  (  2.798210,  2.796518,  1.881435 )     2.70931895
  WF centre and spread   55  (  2.801051,  2.800308,  1.925249 )     1.01873211
  WF centre and spread   56  (  2.800181,  2.800263,  1.925396 )     1.02024098
  Sum of centres and spreads (111.622842,111.780599,130.923724 )   307.00116941

    200    -0.123E+00    12.0676236978      307.0011694074      12.77  <-- CONV
        O_D=      4.1307992 O_OD=    140.6591263 O_TOT=    307.0011694 <-- SPRD
 Delta: O_D= -0.8276091E-01 O_OD= -0.3996575E-01 O_TOT= -0.1227267E+00 <-- DLTA
 ------------------------------------------------------------------------------
 Cycle:    400
  WF centre and spread    1  ( -0.000016,  0.000032, -0.000310 )     1.37726402
  WF centre and spread    2  ( -0.000201,  0.000154,  0.000555 )     1.37767526
  WF centre and spread    3  ( -0.000297,  0.000049,  0.000105 )     1.39145851
  WF centre and spread    4  (  0.000148,  0.000140,  3.849851 )     1.37282540
  WF centre and spread    5  ( -0.000041,  0.000129,  3.850140 )     1.37514133
  WF centre and spread    6  (  0.000256,  0.000060,  3.849965 )     1.37439351
  WF centre and spread    7  (  2.799994,  2.799944,  3.849515 )     1.36861550
  WF centre and spread    8  (  2.799898,  2.800074,  3.850598 )     1.37181751
  WF centre and spread    9  (  2.800155,  2.799844,  3.849965 )     1.38136785
  WF centre and spread   10  (  2.799839,  2.799768, -0.001186 )     1.36602970
  WF centre and spread   11  (  2.799881,  2.800180,  0.000097 )     1.36664682
  WF centre and spread   12  (  2.800296,  2.800359, -0.000040 )     1.38105869
  WF centre and spread   13  (  0.281780,  0.083630,  0.219038 )    31.00180046
  WF centre and spread   14  ( -0.186853,  0.052817,  0.045650 )    25.59553831
  WF centre and spread   15  ( -0.117189, -0.212656,  3.566917 )    37.24192621
  WF centre and spread   16  ( -0.098648,  0.072275,  3.858513 )    15.62652943
  WF centre and spread   17  (  2.650651,  3.039329,  3.971291 )    33.60022744
  WF centre and spread   18  (  2.836455,  2.673853,  3.823031 )    19.80864962
  WF centre and spread   19  (  2.453862,  2.371159, -0.193458 )    35.38006771
  WF centre and spread   20  (  3.062196,  2.951298,  0.091922 )    29.20547369
  WF centre and spread   21  (  1.399359,  4.200511,  0.002061 )     1.10817129
  WF centre and spread   22  (  1.401833,  4.201458, -0.001229 )     1.73494666
  WF centre and spread   23  (  1.397083,  4.201273, -0.001224 )     1.76276065
  WF centre and spread   24  (  1.399719,  1.399619, -0.000635 )     1.10841377
  WF centre and spread   25  (  1.398727,  1.403742,  0.003217 )     1.71773920
  WF centre and spread   26  (  1.402625,  1.402714,  0.004021 )     1.72134539
  WF centre and spread   27  (  4.199981,  1.400097,  3.850099 )     1.08613006
  WF centre and spread   28  (  4.203514,  1.418555,  3.849762 )     1.75864051
  WF centre and spread   29  (  4.178936,  1.394593,  3.849831 )     1.72696097
  WF centre and spread   30  (  4.199673,  4.199738,  3.850920 )     1.08686391
  WF centre and spread   31  (  4.201280,  4.184872,  3.851643 )     1.74566679
  WF centre and spread   32  (  4.183144,  4.201922,  3.852904 )     1.74670107
  WF centre and spread   33  (  4.200447,  1.399709,  0.000490 )     1.10996184
  WF centre and spread   34  (  4.204294,  1.401284,  0.001076 )     1.74592200
  WF centre and spread   35  (  4.199528,  1.394540,  0.001188 )     1.75343147
  WF centre and spread   36  (  4.200094,  4.200127,  0.000157 )     1.10765000
  WF centre and spread   37  (  4.200365,  4.198675,  0.003229 )     1.72800251
  WF centre and spread   38  (  4.200981,  4.199522,  0.003288 )     1.72400577
  WF centre and spread   39  (  1.400068,  4.199849,  3.850768 )     1.08584398
  WF centre and spread   40  (  1.391594,  4.181368,  3.848514 )     1.75693944
  WF centre and spread   41  (  1.417139,  4.207917,  3.848925 )     1.74414857
  WF centre and spread   42  (  1.400384,  1.400212,  3.850386 )     1.08399808
  WF centre and spread   43  (  1.394108,  1.415079,  3.851246 )     1.72891116
  WF centre and spread   44  (  1.409864,  1.396635,  3.850590 )     1.76123341
  WF centre and spread   45  ( -0.006881, -0.004934,  1.890362 )     2.34253964
  WF centre and spread   46  (  0.000409,  0.000110,  1.924757 )     1.02777388
  WF centre and spread   47  (  0.000043, -0.001460,  1.924961 )     1.02902416
  WF centre and spread   48  ( -0.002855, -0.000625,  5.819014 )     2.23703968
  WF centre and spread   49  (  0.000060,  0.000248,  5.774913 )     1.02593916
  WF centre and spread   50  (  0.000380, -0.000729,  5.775055 )     1.02734525
  WF centre and spread   51  (  2.793333,  2.798624,  5.810294 )     2.25345704
  WF centre and spread   52  (  2.800409,  2.800687,  5.774608 )     1.01499341
  WF centre and spread   53  (  2.800089,  2.799299,  5.774434 )     1.01620680
  WF centre and spread   54  (  2.798260,  2.797825,  1.889106 )     2.23599896
  WF centre and spread   55  (  2.801178,  2.800406,  1.925246 )     1.01616025
  WF centre and spread   56  (  2.800229,  2.800158,  1.925372 )     1.01614671
  Sum of centres and spreads (111.651561,111.826059,130.911512 )   297.84152041

    400    -0.726E-01     9.3769775538      297.8415204101      26.18  <-- CONV
        O_D=      3.3931705 O_OD=    132.2371061 O_TOT=    297.8415204 <-- SPRD
 Delta: O_D= -0.2052584E-01 O_OD= -0.5204074E-01 O_TOT= -0.7256659E-01 <-- DLTA
 ------------------------------------------------------------------------------
 Cycle:    600
  WF centre and spread    1  (  0.000084,  0.000137, -0.000388 )     1.37766995
  WF centre and spread    2  ( -0.000149,  0.000111,  0.000549 )     1.37821470
  WF centre and spread    3  ( -0.000298,  0.000062,  0.000080 )     1.38856283
  WF centre and spread    4  (  0.000240,  0.000234,  3.849744 )     1.37401185
  WF centre and spread    5  (  0.000027,  0.000027,  3.850153 )     1.37655031
  WF centre and spread    6  (  0.000202,  0.000076,  3.849965 )     1.37460429
  WF centre and spread    7  (  2.800069,  2.800014,  3.849365 )     1.36892637
  WF centre and spread    8  (  2.799951,  2.800051,  3.850669 )     1.37232539
  WF centre and spread    9  (  2.800134,  2.799852,  3.849959 )     1.38053580
  WF centre and spread   10  (  2.799881,  2.799811, -0.001358 )     1.36700093
  WF centre and spread   11  (  2.799908,  2.800129,  0.000133 )     1.36762622
  WF centre and spread   12  (  2.800314,  2.800352, -0.000036 )     1.38005339
  WF centre and spread   13  (  0.246770,  0.099622,  0.241785 )    30.94532794
  WF centre and spread   14  ( -0.180710,  0.073690,  0.045133 )    24.29191112
  WF centre and spread   15  ( -0.071844, -0.189799,  3.565970 )    36.80493607
  WF centre and spread   16  ( -0.093838,  0.075571,  3.861515 )    15.50059738
  WF centre and spread   17  (  2.642379,  3.067957,  3.957833 )    33.33094042
  WF centre and spread   18  (  2.860604,  2.689080,  3.824602 )    19.29332801
  WF centre and spread   19  (  2.419824,  2.346894, -0.202716 )    35.19736920
  WF centre and spread   20  (  3.070487,  2.947719,  0.096320 )    28.96320291
  WF centre and spread   21  (  1.399365,  4.200514,  0.001986 )     1.10709647
  WF centre and spread   22  (  1.402590,  4.200215, -0.001150 )     1.63096561
  WF centre and spread   23  (  1.398356,  4.200618, -0.001234 )     1.65782135
  WF centre and spread   24  (  1.399738,  1.399672, -0.000754 )     1.10728297
  WF centre and spread   25  (  1.400149,  1.403866,  0.002560 )     1.60279650
  WF centre and spread   26  (  1.403106,  1.403421,  0.003269 )     1.61036603
  WF centre and spread   27  (  4.199942,  1.400129,  3.850058 )     1.08470385
  WF centre and spread   28  (  4.203225,  1.418341,  3.849704 )     1.68425458
  WF centre and spread   29  (  4.180056,  1.395851,  3.849639 )     1.65666417
  WF centre and spread   30  (  4.199648,  4.199732,  3.850952 )     1.08447782
  WF centre and spread   31  (  4.200555,  4.184725,  3.851618 )     1.67127465
  WF centre and spread   32  (  4.182767,  4.201861,  3.852769 )     1.67396208
  WF centre and spread   33  (  4.200419,  1.399728,  0.000703 )     1.10843693
  WF centre and spread   34  (  4.202756,  1.402665,  0.000883 )     1.64414873
  WF centre and spread   35  (  4.198189,  1.396366,  0.000857 )     1.64735844
  WF centre and spread   36  (  4.200101,  4.200138,  0.000049 )     1.10619759
  WF centre and spread   37  (  4.199445,  4.198259,  0.002839 )     1.61929123
  WF centre and spread   38  (  4.200264,  4.198693,  0.003021 )     1.61617246
  WF centre and spread   39  (  1.400101,  4.199820,  3.850663 )     1.08345761
  WF centre and spread   40  (  1.393233,  4.180998,  3.848644 )     1.68617309
  WF centre and spread   41  (  1.418487,  4.206619,  3.849141 )     1.66904965
  WF centre and spread   42  (  1.400424,  1.400285,  3.850446 )     1.08213750
  WF centre and spread   43  (  1.395503,  1.415402,  3.851389 )     1.66282307
  WF centre and spread   44  (  1.410291,  1.397560,  3.850823 )     1.69249319
  WF centre and spread   45  ( -0.006219, -0.003557,  1.893348 )     2.10573513
  WF centre and spread   46  (  0.000583,  0.000026,  1.924760 )     1.02563155
  WF centre and spread   47  (  0.000120, -0.001568,  1.924975 )     1.02742094
  WF centre and spread   48  ( -0.002947, -0.000270,  5.813248 )     2.00244530
  WF centre and spread   49  ( -0.000219,  0.000200,  5.774939 )     1.02412445
  WF centre and spread   50  (  0.000393, -0.000823,  5.775071 )     1.02535689
  WF centre and spread   51  (  2.795173,  2.799650,  5.806104 )     2.00924321
  WF centre and spread   52  (  2.800474,  2.800747,  5.774661 )     1.01303938
  WF centre and spread   53  (  2.800131,  2.799146,  5.774520 )     1.01385775
  WF centre and spread   54  (  2.798471,  2.798631,  1.893481 )     1.98521701
  WF centre and spread   55  (  2.801236,  2.800480,  1.925236 )     1.01409810
  WF centre and spread   56  (  2.800249,  2.800045,  1.925350 )     1.01361708
  Sum of centres and spreads (111.670189,111.909773,130.913846 )   292.28288744

    600    -0.649E-02     4.8570970498      292.2828874352      39.19  <-- CONV
        O_D=      2.9808920 O_OD=    127.0907516 O_TOT=    292.2828874 <-- SPRD
 Delta: O_D= -0.7638423E-03 O_OD= -0.5728421E-02 O_TOT= -0.6492264E-02 <-- DLTA
 ------------------------------------------------------------------------------
 Cycle:    800
  WF centre and spread    1  (  0.000184,  0.000239, -0.000458 )     1.37876350
  WF centre and spread    2  ( -0.000077,  0.000058,  0.000543 )     1.37948629
  WF centre and spread    3  ( -0.000292,  0.000065,  0.000054 )     1.38648513
  WF centre and spread    4  (  0.000329,  0.000321,  3.849634 )     1.37526919
  WF centre and spread    5  (  0.000111, -0.000084,  3.850196 )     1.37849848
  WF centre and spread    6  (  0.000147,  0.000088,  3.849968 )     1.37536519
  WF centre and spread    7  (  2.800138,  2.800095,  3.849206 )     1.36961932
  WF centre and spread    8  (  2.800021,  2.800011,  3.850750 )     1.37345341
  WF centre and spread    9  (  2.800124,  2.799857,  3.849961 )     1.38038662
  WF centre and spread   10  (  2.799913,  2.799847, -0.001544 )     1.36833034
  WF centre and spread   11  (  2.799946,  2.800061,  0.000177 )     1.36893223
  WF centre and spread   12  (  2.800309,  2.800312, -0.000033 )     1.37944397
  WF centre and spread   13  (  0.192245,  0.094074,  0.238308 )    31.06916068
  WF centre and spread   14  ( -0.175574,  0.102227,  0.051348 )    23.01124991
  WF centre and spread   15  ( -0.066108, -0.147900,  3.581696 )    36.55338858
  WF centre and spread   16  ( -0.084957,  0.081834,  3.863494 )    15.44725930
  WF centre and spread   17  (  2.625597,  3.093123,  3.949986 )    33.04640329
  WF centre and spread   18  (  2.883944,  2.712640,  3.820775 )    18.88530523
  WF centre and spread   19  (  2.342970,  2.310050, -0.207735 )    34.94533541
  WF centre and spread   20  (  3.078100,  2.946704,  0.111126 )    28.83730325
  WF centre and spread   21  (  1.399374,  4.200502,  0.001820 )     1.10612435
  WF centre and spread   22  (  1.403802,  4.198520, -0.001037 )     1.54672626
  WF centre and spread   23  (  1.400077,  4.199657, -0.001170 )     1.57693662
  WF centre and spread   24  (  1.399781,  1.399743, -0.000872 )     1.10682264
  WF centre and spread   25  (  1.401678,  1.404333,  0.002055 )     1.51548497
  WF centre and spread   26  (  1.403803,  1.404398,  0.002636 )     1.53025221
  WF centre and spread   27  (  4.199912,  1.400124,  3.850031 )     1.08371188
  WF centre and spread   28  (  4.202649,  1.418248,  3.849599 )     1.61737982
  WF centre and spread   29  (  4.181173,  1.397425,  3.849443 )     1.59456159
  WF centre and spread   30  (  4.199641,  4.199740,  3.851002 )     1.08265987
  WF centre and spread   31  (  4.199743,  4.184600,  3.851608 )     1.60291825
  WF centre and spread   32  (  4.182470,  4.201640,  3.852558 )     1.60673482
  WF centre and spread   33  (  4.200403,  1.399748,  0.000867 )     1.10715355
  WF centre and spread   34  (  4.200730,  1.404614,  0.000729 )     1.56137616
  WF centre and spread   35  (  4.196395,  1.398779,  0.000594 )     1.56347989
  WF centre and spread   36  (  4.200103,  4.200140, -0.000038 )     1.10522910
  WF centre and spread   37  (  4.198097,  4.197532,  0.002525 )     1.53653446
  WF centre and spread   38  (  4.199183,  4.197681,  0.002774 )     1.53620028
  WF centre and spread   39  (  1.400110,  4.199797,  3.850581 )     1.08155606
  WF centre and spread   40  (  1.394997,  4.180646,  3.848730 )     1.62287807
  WF centre and spread   41  (  1.419678,  4.205116,  3.849243 )     1.60274018
  WF centre and spread   42  (  1.400445,  1.400352,  3.850501 )     1.08103179
  WF centre and spread   43  (  1.397128,  1.415876,  3.851394 )     1.60156865
  WF centre and spread   44  (  1.410746,  1.398729,  3.850980 )     1.62930813
  WF centre and spread   45  ( -0.005319, -0.002134,  1.895954 )     1.92203172
  WF centre and spread   46  (  0.000763, -0.000066,  1.924786 )     1.02363230
  WF centre and spread   47  (  0.000183, -0.001621,  1.924970 )     1.02599699
  WF centre and spread   48  ( -0.002853,  0.000079,  5.807725 )     1.82154917
  WF centre and spread   49  ( -0.000494,  0.000155,  5.774962 )     1.02217334
  WF centre and spread   50  (  0.000405, -0.000869,  5.775083 )     1.02356922
  WF centre and spread   51  (  2.796784,  2.800341,  5.801973 )     1.81665950
  WF centre and spread   52  (  2.800473,  2.800774,  5.774697 )     1.01149188
  WF centre and spread   53  (  2.800141,  2.798981,  5.774590 )     1.01192190
  WF centre and spread   54  (  2.798763,  2.799249,  1.897455 )     1.79514534
  WF centre and spread   55  (  2.801186,  2.800529,  1.925221 )     1.01229962
  WF centre and spread   56  (  2.800244,  2.799932,  1.925342 )     1.01150265
  Sum of centres and spreads (111.579463,111.996913,130.926766 )   287.80678253

    800    -0.106E+00    11.3678973446      287.8067825305      52.16  <-- CONV
        O_D=      2.7823487 O_OD=    122.8131900 O_TOT=    287.8067825 <-- SPRD
 Delta: O_D= -0.6920132E-01 O_OD= -0.3718281E-01 O_TOT= -0.1063841E+00 <-- DLTA
 ------------------------------------------------------------------------------
 Cycle:   1000
  WF centre and spread    1  (  0.000272,  0.000333, -0.000481 )     1.37992721
  WF centre and spread    2  ( -0.000049,  0.000040,  0.000540 )     1.38061574
  WF centre and spread    3  ( -0.000300,  0.000064,  0.000044 )     1.38542715
  WF centre and spread    4  (  0.000407,  0.000398,  3.849569 )     1.37654398
  WF centre and spread    5  (  0.000140, -0.000137,  3.850252 )     1.38001273
  WF centre and spread    6  (  0.000122,  0.000093,  3.849971 )     1.37616541
  WF centre and spread    7  (  2.800191,  2.800161,  3.849107 )     1.37029006
  WF centre and spread    8  (  2.800034,  2.800026,  3.850840 )     1.37437753
  WF centre and spread    9  (  2.800126,  2.799865,  3.849961 )     1.38057500
  WF centre and spread   10  (  2.799956,  2.799891, -0.001651 )     1.36949506
  WF centre and spread   11  (  2.799946,  2.800042,  0.000215 )     1.36996649
  WF centre and spread   12  (  2.800289,  2.800271, -0.000023 )     1.37968349
  WF centre and spread   13  (  0.121202,  0.093565,  0.228367 )    31.28968774
  WF centre and spread   14  ( -0.168776,  0.117586,  0.059565 )    22.09532953
  WF centre and spread   15  ( -0.062799, -0.114274,  3.640084 )    36.23557193
  WF centre and spread   16  ( -0.075575,  0.090631,  3.863041 )    15.45674077
  WF centre and spread   17  (  2.622966,  3.140017,  3.945036 )    33.06337258
  WF centre and spread   18  (  2.901970,  2.730860,  3.818397 )    18.62505083
  WF centre and spread   19  (  2.277706,  2.282838, -0.216498 )    34.80739871
  WF centre and spread   20  (  3.070328,  2.956125,  0.120635 )    28.63802548
  WF centre and spread   21  (  1.399393,  4.200493,  0.001632 )     1.10544146
  WF centre and spread   22  (  1.404654,  4.197268, -0.001019 )     1.49715650
  WF centre and spread   23  (  1.401411,  4.199037, -0.001186 )     1.53122808
  WF centre and spread   24  (  1.399826,  1.399811, -0.000918 )     1.10661842
  WF centre and spread   25  (  1.402480,  1.404777,  0.001810 )     1.46743517
  WF centre and spread   26  (  1.404268,  1.405187,  0.002257 )     1.48823184
  WF centre and spread   27  (  4.199881,  1.400124,  3.849985 )     1.08284577
  WF centre and spread   28  (  4.202273,  1.418217,  3.849546 )     1.57439984
  WF centre and spread   29  (  4.182032,  1.398794,  3.849390 )     1.55596808
  WF centre and spread   30  (  4.199638,  4.199748,  3.851060 )     1.08135850
  WF centre and spread   31  (  4.199105,  4.184584,  3.851520 )     1.56079570
  WF centre and spread   32  (  4.182381,  4.201404,  3.852323 )     1.56432929
  WF centre and spread   33  (  4.200382,  1.399773,  0.000902 )     1.10613255
  WF centre and spread   34  (  4.199457,  1.406009,  0.000557 )     1.51513153
  WF centre and spread   35  (  4.195229,  1.400502,  0.000385 )     1.51792034
  WF centre and spread   36  (  4.200104,  4.200145, -0.000061 )     1.10475835
  WF centre and spread   37  (  4.197303,  4.197102,  0.002316 )     1.49180764
  WF centre and spread   38  (  4.198589,  4.197091,  0.002560 )     1.49696529
  WF centre and spread   39  (  1.400115,  4.199778,  3.850483 )     1.08030474
  WF centre and spread   40  (  1.396199,  4.180574,  3.848763 )     1.58203848
  WF centre and spread   41  (  1.420349,  4.204031,  3.849330 )     1.56153302
  WF centre and spread   42  (  1.400454,  1.400407,  3.850563 )     1.08042431
  WF centre and spread   43  (  1.398463,  1.416196,  3.851340 )     1.56380967
  WF centre and spread   44  (  1.411017,  1.399699,  3.851014 )     1.59024987
  WF centre and spread   45  ( -0.004737, -0.001298,  1.897563 )     1.80892322
  WF centre and spread   46  (  0.000883, -0.000088,  1.924832 )     1.02256880
  WF centre and spread   47  (  0.000220, -0.001572,  1.924954 )     1.02514970
  WF centre and spread   48  ( -0.002651,  0.000230,  5.803945 )     1.71683469
  WF centre and spread   49  ( -0.000678,  0.000123,  5.774996 )     1.02150332
  WF centre and spread   50  (  0.000420, -0.000843,  5.775090 )     1.02265051
  WF centre and spread   51  (  2.797700,  2.800565,  5.799233 )     1.70815994
  WF centre and spread   52  (  2.800489,  2.800783,  5.774719 )     1.01041530
  WF centre and spread   53  (  2.800155,  2.798881,  5.774639 )     1.01069237
  WF centre and spread   54  (  2.799071,  2.799573,  1.900232 )     1.68911700
  WF centre and spread   55  (  2.801161,  2.800578,  1.925234 )     1.01105095
  WF centre and spread   56  (  2.800229,  2.799860,  1.925341 )     1.01017939
  Sum of centres and spreads (111.475421,112.105940,130.972303 )   285.09838706

   1000    -0.599E-01    15.3145624138      285.0983870600      65.61  <-- CONV
        O_D=      2.8770696 O_OD=    120.0100736 O_TOT=    285.0983871 <-- SPRD
 Delta: O_D= -0.4792477E-01 O_OD= -0.1197225E-01 O_TOT= -0.5989702E-01 <-- DLTA
 ------------------------------------------------------------------------------
 Cycle:   1200
  WF centre and spread    1  (  0.000346,  0.000406, -0.000512 )     1.38035460
  WF centre and spread    2  ( -0.000080,  0.000080,  0.000608 )     1.38118541
  WF centre and spread    3  ( -0.000283,  0.000060,  0.000033 )     1.38454374
  WF centre and spread    4  (  0.000481,  0.000471,  3.849516 )     1.37703302
  WF centre and spread    5  (  0.000099, -0.000114,  3.850358 )     1.38099285
  WF centre and spread    6  (  0.000094,  0.000083,  3.849973 )     1.37649807
  WF centre and spread    7  (  2.800261,  2.800232,  3.849019 )     1.37070908
  WF centre and spread    8  (  2.799995,  2.800092,  3.850971 )     1.37502746
  WF centre and spread    9  (  2.800118,  2.799878,  3.849961 )     1.38060110
  WF centre and spread   10  (  2.800012,  2.799950, -0.001725 )     1.37014937
  WF centre and spread   11  (  2.799893,  2.800085,  0.000328 )     1.37066504
  WF centre and spread   12  (  2.800258,  2.800240, -0.000024 )     1.37992965
  WF centre and spread   13  (  0.115225,  0.114924,  0.226260 )    31.51822549
  WF centre and spread   14  ( -0.142560,  0.123225,  0.063784 )    21.24789708
  WF centre and spread   15  ( -0.065451, -0.118918,  3.658742 )    36.18394931
  WF centre and spread   16  ( -0.064189,  0.099505,  3.865201 )    15.43470902
  WF centre and spread   17  (  2.630481,  3.168115,  3.891396 )    32.89287463
  WF centre and spread   18  (  2.918264,  2.749272,  3.819116 )    18.33324684
  WF centre and spread   19  (  2.261183,  2.327046, -0.203330 )    34.66177545
  WF centre and spread   20  (  3.050579,  2.966266,  0.140533 )    28.48304469
  WF centre and spread   21  (  1.399415,  4.200495,  0.001499 )     1.10409745
  WF centre and spread   22  (  1.405405,  4.196244, -0.000987 )     1.45297706
  WF centre and spread   23  (  1.402684,  4.198295, -0.001192 )     1.48308826
  WF centre and spread   24  (  1.399868,  1.399879, -0.000935 )     1.10577307
  WF centre and spread   25  (  1.403139,  1.404981,  0.001615 )     1.42464979
  WF centre and spread   26  (  1.404680,  1.405517,  0.001991 )     1.44319003
  WF centre and spread   27  (  4.199860,  1.400133,  3.849919 )     1.08195730
  WF centre and spread   28  (  4.201908,  1.418136,  3.849484 )     1.54258648
  WF centre and spread   29  (  4.182718,  1.399798,  3.849346 )     1.52647657
  WF centre and spread   30  (  4.199636,  4.199770,  3.851090 )     1.08004441
  WF centre and spread   31  (  4.198827,  4.184703,  3.851507 )     1.52938923
  WF centre and spread   32  (  4.182515,  4.201210,  3.852230 )     1.53224223
  WF centre and spread   33  (  4.200359,  1.399812,  0.000972 )     1.10490073
  WF centre and spread   34  (  4.198319,  1.406981,  0.000368 )     1.47154723
  WF centre and spread   35  (  4.194286,  1.401808,  0.000225 )     1.46986471
  WF centre and spread   36  (  4.200112,  4.200153, -0.000052 )     1.10368488
  WF centre and spread   37  (  4.196710,  4.196842,  0.002194 )     1.45124651
  WF centre and spread   38  (  4.197880,  4.196827,  0.002396 )     1.45025667
  WF centre and spread   39  (  1.400125,  4.199766,  3.850369 )     1.07913353
  WF centre and spread   40  (  1.397092,  4.180680,  3.848794 )     1.55166197
  WF centre and spread   41  (  1.420649,  4.203353,  3.849391 )     1.53029160
  WF centre and spread   42  (  1.400471,  1.400450,  3.850583 )     1.07991773
  WF centre and spread   43  (  1.399518,  1.416335,  3.851370 )     1.53474398
  WF centre and spread   44  (  1.411242,  1.400542,  3.851079 )     1.55914519
  WF centre and spread   45  ( -0.004081, -0.000717,  1.898794 )     1.72861411
  WF centre and spread   46  (  0.000937, -0.000122,  1.924840 )     1.02131901
  WF centre and spread   47  (  0.000255, -0.001475,  1.924937 )     1.02358202
  WF centre and spread   48  ( -0.002364,  0.000334,  5.801011 )     1.64480418
  WF centre and spread   49  ( -0.000793,  0.000117,  5.775015 )     1.02027683
  WF centre and spread   50  (  0.000448, -0.000774,  5.775101 )     1.02123475
  WF centre and spread   51  (  2.798276,  2.800720,  5.797067 )     1.63913611
  WF centre and spread   52  (  2.800508,  2.800805,  5.774743 )     1.00895473
  WF centre and spread   53  (  2.800148,  2.798858,  5.774680 )     1.00869533
  WF centre and spread   54  (  2.799273,  2.799811,  1.902389 )     1.62068871
  WF centre and spread   55  (  2.801130,  2.800620,  1.925239 )     1.00933881
  WF centre and spread   56  (  2.800208,  2.799773,  1.925324 )     1.00842444
  Sum of centres and spreads (111.496085,112.241560,130.972601 )   282.73134753

   1200     0.118E+00    18.2641232106      282.7313475252      79.05  <-- CONV
        O_D=      3.0821511 O_OD=    117.4379526 O_TOT=    282.7313475 <-- SPRD
 Delta: O_D=  0.1191636E+00 O_OD= -0.1606524E-02 O_TOT=  0.1175570E+00 <-- DLTA
 ------------------------------------------------------------------------------
 Cycle:   1400
  WF centre and spread    1  (  0.000430,  0.000492, -0.000537 )     1.38162648
  WF centre and spread    2  ( -0.000178,  0.000179,  0.000780 )     1.38142358
  WF centre and spread    3  ( -0.000281,  0.000031,  0.000024 )     1.38398136
  WF centre and spread    4  (  0.000560,  0.000553,  3.849471 )     1.37849856
  WF centre and spread    5  ( -0.000011, -0.000020,  3.850537 )     1.38145176
  WF centre and spread    6  (  0.000079,  0.000075,  3.849974 )     1.37706912
  WF centre and spread    7  (  2.800339,  2.800310,  3.848924 )     1.37161930
  WF centre and spread    8  (  2.799892,  2.800204,  3.851193 )     1.37503524
  WF centre and spread    9  (  2.800119,  2.799893,  3.849964 )     1.38094228
  WF centre and spread   10  (  2.800081,  2.800024, -0.001801 )     1.37111186
  WF centre and spread   11  (  2.799765,  2.800202,  0.000551 )     1.37066359
  WF centre and spread   12  (  2.800220,  2.800211, -0.000021 )     1.37995363
  WF centre and spread   13  (  0.086968,  0.100841,  0.216125 )    31.47437035
  WF centre and spread   14  ( -0.159755,  0.157102,  0.058973 )    20.08785333
  WF centre and spread   15  ( -0.088922, -0.079231,  3.689612 )    36.07419787
  WF centre and spread   16  ( -0.053775,  0.108547,  3.865868 )    15.44845730
  WF centre and spread   17  (  2.609030,  3.173695,  3.911912 )    32.58108822
  WF centre and spread   18  (  2.924840,  2.769212,  3.817318 )    18.15621777
  WF centre and spread   19  (  2.205675,  2.292550, -0.191098 )    34.36641723
  WF centre and spread   20  (  3.017539,  3.007019,  0.151566 )    28.17473494
  WF centre and spread   21  (  1.399433,  4.200501,  0.001362 )     1.10328452
  WF centre and spread   22  (  1.406252,  4.195071, -0.000939 )     1.42403520
  WF centre and spread   23  (  1.404040,  4.197482, -0.001148 )     1.45641166
  WF centre and spread   24  (  1.399907,  1.399941, -0.000947 )     1.10519700
  WF centre and spread   25  (  1.403590,  1.405605,  0.001570 )     1.39859457
  WF centre and spread   26  (  1.405247,  1.406323,  0.001825 )     1.42123486
  WF centre and spread   27  (  4.199844,  1.400124,  3.849852 )     1.08155397
  WF centre and spread   28  (  4.201446,  1.418078,  3.849404 )     1.51530886
  WF centre and spread   29  (  4.183406,  1.400914,  3.849288 )     1.50248889
  WF centre and spread   30  (  4.199665,  4.199808,  3.851103 )     1.07952012
  WF centre and spread   31  (  4.198513,  4.184852,  3.851517 )     1.50395638
  WF centre and spread   32  (  4.182605,  4.200976,  3.852092 )     1.50544100
  WF centre and spread   33  (  4.200318,  1.399852,  0.000985 )     1.10412847
  WF centre and spread   34  (  4.197053,  1.408265,  0.000255 )     1.44175883
  WF centre and spread   35  (  4.193026,  1.403452,  0.000132 )     1.44147474
  WF centre and spread   36  (  4.200119,  4.200159, -0.000013 )     1.10277923
  WF centre and spread   37  (  4.195888,  4.196338,  0.002151 )     1.42474145
  WF centre and spread   38  (  4.196989,  4.196473,  0.002324 )     1.42707315
  WF centre and spread   39  (  1.400113,  4.199751,  3.850262 )     1.07857935
  WF centre and spread   40  (  1.397895,  4.180757,  3.848825 )     1.52509328
  WF centre and spread   41  (  1.420911,  4.202586,  3.849412 )     1.50478681
  WF centre and spread   42  (  1.400468,  1.400462,  3.850603 )     1.07986965
  WF centre and spread   43  (  1.400534,  1.416468,  3.851359 )     1.51011722
  WF centre and spread   44  (  1.411360,  1.401300,  3.851089 )     1.53334516
  WF centre and spread   45  ( -0.003563, -0.000473,  1.900205 )     1.66472685
  WF centre and spread   46  (  0.000996, -0.000146,  1.924842 )     1.02042588
  WF centre and spread   47  (  0.000301, -0.001394,  1.924937 )     1.02242263
  WF centre and spread   48  ( -0.002132,  0.000259,  5.798285 )     1.59149978
  WF centre and spread   49  ( -0.000873,  0.000112,  5.775025 )     1.01957989
  WF centre and spread   50  (  0.000457, -0.000677,  5.775096 )     1.02034961
  WF centre and spread   51  (  2.798662,  2.800783,  5.795067 )     1.58592089
  WF centre and spread   52  (  2.800570,  2.800782,  5.774754 )     1.00856738
  WF centre and spread   53  (  2.800126,  2.798834,  5.774708 )     1.00814145
  WF centre and spread   54  (  2.799407,  2.799975,  1.904347 )     1.56957911
  WF centre and spread   55  (  2.801089,  2.800625,  1.925256 )     1.00870667
  WF centre and spread   56  (  2.800199,  2.799766,  1.925338 )     1.00787940
  Sum of centres and spreads (111.336478,112.345876,131.029557 )   279.69528767

   1400    -0.977E-02     3.8663771981      279.6952876660      91.97  <-- CONV
        O_D=      2.6068481 O_OD=    114.8771957 O_TOT=    279.6952877 <-- SPRD
 Delta: O_D= -0.3170734E-02 O_OD= -0.6597047E-02 O_TOT= -0.9767782E-02 <-- DLTA
 ------------------------------------------------------------------------------
 Cycle:   1600
  WF centre and spread    1  (  0.000503,  0.000564, -0.000556 )     1.38227429
  WF centre and spread    2  ( -0.000276,  0.000276,  0.000827 )     1.38183231
  WF centre and spread    3  ( -0.000267, -0.000008,  0.000020 )     1.38345082
  WF centre and spread    4  (  0.000647,  0.000632,  3.849445 )     1.37917460
  WF centre and spread    5  ( -0.000147,  0.000085,  3.850627 )     1.38212690
  WF centre and spread    6  (  0.000053,  0.000047,  3.849981 )     1.37742503
  WF centre and spread    7  (  2.800404,  2.800369,  3.848836 )     1.37216937
  WF centre and spread    8  (  2.799812,  2.800294,  3.851303 )     1.37534378
  WF centre and spread    9  (  2.800120,  2.799903,  3.849973 )     1.38094762
  WF centre and spread   10  (  2.800134,  2.800077, -0.001844 )     1.37165934
  WF centre and spread   11  (  2.799649,  2.800302,  0.000673 )     1.37099746
  WF centre and spread   12  (  2.800174,  2.800166, -0.000022 )     1.38008011
  WF centre and spread   13  ( -0.003636,  0.098633,  0.211892 )    31.56881991
  WF centre and spread   14  ( -0.152485,  0.156729,  0.051004 )    19.07855892
  WF centre and spread   15  ( -0.078657, -0.060780,  3.692942 )    36.00107918
  WF centre and spread   16  ( -0.041516,  0.117836,  3.866992 )    15.41605357
  WF centre and spread   17  (  2.604295,  3.195636,  3.915662 )    32.31377211
  WF centre and spread   18  (  2.947725,  2.789116,  3.818518 )    17.86062838
  WF centre and spread   19  (  2.161682,  2.320556, -0.181177 )    34.11708297
  WF centre and spread   20  (  2.994671,  3.025186,  0.157056 )    28.04184847
  WF centre and spread   21  (  1.399448,  4.200488,  0.001183 )     1.10164316
  WF centre and spread   22  (  1.406940,  4.193971, -0.000907 )     1.39289035
  WF centre and spread   23  (  1.405209,  4.196597, -0.001140 )     1.41990633
  WF centre and spread   24  (  1.399947,  1.399992, -0.000914 )     1.10448674
  WF centre and spread   25  (  1.404036,  1.405968,  0.001401 )     1.36942861
  WF centre and spread   26  (  1.405533,  1.406640,  0.001558 )     1.39094607
  WF centre and spread   27  (  4.199808,  1.400128,  3.849783 )     1.08113917
  WF centre and spread   28  (  4.201101,  1.417959,  3.849311 )     1.48850044
  WF centre and spread   29  (  4.184094,  1.401842,  3.849201 )     1.47943668
  WF centre and spread   30  (  4.199686,  4.199839,  3.851090 )     1.07840515
  WF centre and spread   31  (  4.198338,  4.185096,  3.851463 )     1.47699968
  WF centre and spread   32  (  4.182904,  4.200675,  3.851943 )     1.47828710
[...]
  WF centre and spread   13  ( -0.141104,  0.246170,  0.095596 )    33.61868318
  WF centre and spread   14  ( -0.090905,  0.131599,  0.023944 )    14.86802518
  WF centre and spread   15  ( -0.124677,  0.094339,  3.733114 )    34.69386276
  WF centre and spread   16  ( -0.000065,  0.147059,  3.875721 )    15.34527641
  WF centre and spread   17  (  2.363623,  3.478124,  3.977019 )    30.33789053
  WF centre and spread   18  (  3.009035,  2.933294,  3.824549 )    16.95339477
  WF centre and spread   19  (  1.780518,  2.787636, -0.175612 )    32.56299721
  WF centre and spread   20  (  2.936285,  3.018035,  0.077260 )    28.55191493
  WF centre and spread   21  (  1.399721,  4.200301,  0.000645 )     1.09567285
  WF centre and spread   22  (  1.413703,  4.182804, -0.000669 )     1.29342108
  WF centre and spread   23  (  1.416558,  4.188157, -0.000793 )     1.30267786
  WF centre and spread   24  (  1.399820,  1.399903, -0.000351 )     1.10034028
  WF centre and spread   25  (  1.408875,  1.413950,  0.000802 )     1.29081160
  WF centre and spread   26  (  1.410585,  1.411453,  0.000669 )     1.30058346
  WF centre and spread   27  (  4.199848,  1.400076,  3.850091 )     1.07882570
  WF centre and spread   28  (  4.197572,  1.417933,  3.849297 )     1.36194903
  WF centre and spread   29  (  4.186267,  1.407562,  3.849080 )     1.36546945
  WF centre and spread   30  (  4.199800,  4.199883,  3.851075 )     1.07618238
  WF centre and spread   31  (  4.197627,  4.188083,  3.850977 )     1.36151148
  WF centre and spread   32  (  4.185269,  4.197587,  3.851305 )     1.35587887
  WF centre and spread   33  (  4.200070,  1.399965,  0.001093 )     1.09532971
  WF centre and spread   34  (  4.183990,  1.420797, -0.000339 )     1.29785269
  WF centre and spread   35  (  4.180969,  1.417446, -0.000530 )     1.30050015
  WF centre and spread   36  (  4.200157,  4.200051,  0.000826 )     1.09588460
  WF centre and spread   37  (  4.191610,  4.189054,  0.000904 )     1.30467688
  WF centre and spread   38  (  4.187388,  4.192379,  0.001038 )     1.29110549
  WF centre and spread   39  (  1.399992,  4.199968,  3.849356 )     1.07581036
  WF centre and spread   40  (  1.402677,  4.182090,  3.849131 )     1.36139784
  WF centre and spread   41  (  1.419657,  4.196276,  3.849446 )     1.35346558
  WF centre and spread   42  (  1.400200,  1.400192,  3.849829 )     1.07905884
  WF centre and spread   43  (  1.408270,  1.416125,  3.851498 )     1.36477102
  WF centre and spread   44  (  1.410119,  1.407861,  3.851438 )     1.36907932
  WF centre and spread   45  ( -0.000391,  0.000055,  1.913320 )     1.37543578
  WF centre and spread   46  (  0.000149,  0.000577,  1.924995 )     1.01195078
  WF centre and spread   47  (  0.000746, -0.001095,  1.924841 )     1.01172322
  WF centre and spread   48  ( -0.000263,  0.000105,  5.781241 )     1.37756589
  WF centre and spread   49  ( -0.000152,  0.000894,  5.775077 )     1.01293577
  WF centre and spread   50  (  0.000698,  0.000097,  5.774885 )     1.01127612
  WF centre and spread   51  (  2.800166,  2.800643,  5.782141 )     1.38718581
  WF centre and spread   52  (  2.801287,  2.800384,  5.774810 )     1.00298939
  WF centre and spread   53  (  2.799958,  2.799587,  5.774853 )     1.00124011
  WF centre and spread   54  (  2.799576,  2.800022,  1.918143 )     1.38802763
  WF centre and spread   55  (  2.801258,  2.800183,  1.925210 )     1.00305724
  WF centre and spread   56  (  2.799903,  2.798868,  1.925281 )     1.00161247
  Sum of centres and spreads (110.535103,113.669066,130.931120 )   267.11962858

   4600    -0.711E-01    16.1818272361      267.1196285586     309.53  <-- CONV
        O_D=      2.1583608 O_OD=    102.7500239 O_TOT=    267.1196286 <-- SPRD
 Delta: O_D= -0.9244430E-01 O_OD=  0.2134973E-01 O_TOT= -0.7109457E-01 <-- DLTA
 ------------------------------------------------------------------------------
 Cycle:   4800
  WF centre and spread    1  (  0.000365,  0.000437, -0.000954 )     1.39364716
  WF centre and spread    2  ( -0.000469,  0.000456,  0.000993 )     1.39265592
  WF centre and spread    3  (  0.000117, -0.000173, -0.000020 )     1.38442858
  WF centre and spread    4  (  0.000461,  0.000481,  3.849203 )     1.39019067
  WF centre and spread    5  ( -0.000617,  0.000515,  3.850845 )     1.39176863
  WF centre and spread    6  ( -0.000006, -0.000025,  3.850013 )     1.38445052
  WF centre and spread    7  (  2.800096,  2.800066,  3.848299 )     1.38166250
  WF centre and spread    8  (  2.799686,  2.800401,  3.851169 )     1.38424641
  WF centre and spread    9  (  2.799930,  2.800024,  3.850000 )     1.38616364
  WF centre and spread   10  (  2.799917,  2.799874, -0.001606 )     1.37983139
  WF centre and spread   11  (  2.799560,  2.800445,  0.001018 )     1.38028753
  WF centre and spread   12  (  2.799779,  2.800127, -0.000019 )     1.38334089
  WF centre and spread   13  ( -0.084201,  0.239666,  0.070670 )    33.67995343
  WF centre and spread   14  ( -0.090672,  0.113225,  0.011249 )    14.76433938
  WF centre and spread   15  ( -0.150559,  0.100741,  3.730801 )    34.36500805
  WF centre and spread   16  ( -0.002382,  0.143977,  3.876094 )    15.31295831
  WF centre and spread   17  (  2.354831,  3.485036,  3.982840 )    30.33895611
  WF centre and spread   18  (  3.011201,  2.937182,  3.824698 )    16.97084040
  WF centre and spread   19  (  1.757584,  2.847589, -0.141270 )    32.34873395
  WF centre and spread   20  (  2.961993,  3.040015,  0.077099 )    28.46535308
  WF centre and spread   21  (  1.399736,  4.200290,  0.000699 )     1.09545419
  WF centre and spread   22  (  1.414057,  4.182243, -0.000620 )     1.29313105
  WF centre and spread   23  (  1.417179,  4.187610, -0.000752 )     1.30100149
  WF centre and spread   24  (  1.399811,  1.399899, -0.000405 )     1.10001134
  WF centre and spread   25  (  1.409261,  1.414320,  0.000816 )     1.28987468
  WF centre and spread   26  (  1.410836,  1.411579,  0.000712 )     1.29956933
  WF centre and spread   27  (  4.199847,  1.400075,  3.850153 )     1.07862253
  WF centre and spread   28  (  4.197341,  1.418088,  3.849323 )     1.35904675
  WF centre and spread   29  (  4.186112,  1.407681,  3.849144 )     1.36264522
  WF centre and spread   30  (  4.199808,  4.199873,  3.851181 )     1.07584101
  WF centre and spread   31  (  4.197542,  4.188110,  3.850949 )     1.35924533
  WF centre and spread   32  (  4.185303,  4.197450,  3.851321 )     1.35333049
  WF centre and spread   33  (  4.200076,  1.399950,  0.001196 )     1.09553698
  WF centre and spread   34  (  4.183352,  1.421320, -0.000322 )     1.29688924
  WF centre and spread   35  (  4.180429,  1.417919, -0.000525 )     1.30045021
  WF centre and spread   36  (  4.200165,  4.200051,  0.000816 )     1.09553841
  WF centre and spread   37  (  4.191355,  4.188603,  0.000901 )     1.30432144
  WF centre and spread   38  (  4.186909,  4.192075,  0.001063 )     1.28932700
  WF centre and spread   39  (  1.399994,  4.199982,  3.849331 )     1.07563642
  WF centre and spread   40  (  1.402925,  4.182142,  3.849136 )     1.35828364
  WF centre and spread   41  (  1.419612,  4.196018,  3.849453 )     1.35071804
  WF centre and spread   42  (  1.400202,  1.400178,  3.849840 )     1.07855209
  WF centre and spread   43  (  1.408432,  1.416065,  3.851481 )     1.36172875
  WF centre and spread   44  (  1.410041,  1.408104,  3.851381 )     1.36495030
  WF centre and spread   45  ( -0.000368,  0.000038,  1.913616 )     1.37423924
  WF centre and spread   46  (  0.000123,  0.000631,  1.925005 )     1.01100742
  WF centre and spread   47  (  0.000753, -0.001085,  1.924848 )     1.01133901
  WF centre and spread   48  ( -0.000218,  0.000077,  5.780998 )     1.37696766
  WF centre and spread   49  ( -0.000171,  0.000906,  5.775051 )     1.01219223
  WF centre and spread   50  (  0.000721,  0.000156,  5.774886 )     1.01067130
  WF centre and spread   51  (  2.800167,  2.800630,  5.781799 )     1.38426487
  WF centre and spread   52  (  2.801338,  2.800337,  5.774806 )     1.00212035
  WF centre and spread   53  (  2.799939,  2.799515,  5.774877 )     1.00139402
  WF centre and spread   54  (  2.799592,  2.800019,  1.918486 )     1.38559914
  WF centre and spread   55  (  2.801311,  2.800139,  1.925206 )     1.00246538
  WF centre and spread   56  (  2.799888,  2.798806,  1.925282 )     1.00160513
  Sum of centres and spreads (110.560013,113.739852,130.932260 )   266.39238820

   4800    -0.395E-01     5.6627448373      266.3923881873     326.55  <-- CONV
        O_D=      1.7313615 O_OD=    102.4497828 O_TOT=    266.3923882 <-- SPRD
 Delta: O_D= -0.2403950E-01 O_OD= -0.1544609E-01 O_TOT= -0.3948558E-01 <-- DLTA
 ------------------------------------------------------------------------------
 Cycle:   5000
  WF centre and spread    1  (  0.000403,  0.000453, -0.000950 )     1.39360417
  WF centre and spread    2  ( -0.000389,  0.000410,  0.001057 )     1.39249021
  WF centre and spread    3  (  0.000115, -0.000164, -0.000017 )     1.38401303
  WF centre and spread    4  (  0.000492,  0.000515,  3.849215 )     1.38997216
  WF centre and spread    5  ( -0.000546,  0.000466,  3.850866 )     1.39141394
  WF centre and spread    6  ( -0.000026, -0.000021,  3.850011 )     1.38408690
  WF centre and spread    7  (  2.800080,  2.800060,  3.848315 )     1.38136503
  WF centre and spread    8  (  2.799729,  2.800338,  3.851172 )     1.38379451
  WF centre and spread    9  (  2.799916,  2.800039,  3.850001 )     1.38595887
  WF centre and spread   10  (  2.799917,  2.799895, -0.001567 )     1.37978715
  WF centre and spread   11  (  2.799602,  2.800384,  0.001054 )     1.37994541
  WF centre and spread   12  (  2.799788,  2.800130, -0.000022 )     1.38279560
  WF centre and spread   13  ( -0.108512,  0.231000,  0.066779 )    33.63581004
  WF centre and spread   14  ( -0.086559,  0.111310,  0.013770 )    14.70401316
  WF centre and spread   15  ( -0.139959,  0.117203,  3.730137 )    34.14277132
  WF centre and spread   16  ( -0.003620,  0.141865,  3.876717 )    15.29295145
  WF centre and spread   17  (  2.336921,  3.493478,  3.995661 )    30.27076491
  WF centre and spread   18  (  3.015629,  2.939551,  3.828010 )    16.91151902
  WF centre and spread   19  (  1.741475,  2.865379, -0.156834 )    32.19703883
  WF centre and spread   20  (  2.963618,  3.038263,  0.072819 )    28.38951529
  WF centre and spread   21  (  1.399756,  4.200270,  0.000768 )     1.09468962
  WF centre and spread   22  (  1.414313,  4.181869, -0.000629 )     1.29154998
  WF centre and spread   23  (  1.417614,  4.187359, -0.000761 )     1.29809967
  WF centre and spread   24  (  1.399818,  1.399909, -0.000420 )     1.09932729
  WF centre and spread   25  (  1.409562,  1.414673,  0.000798 )     1.28752087
  WF centre and spread   26  (  1.411123,  1.411835,  0.000718 )     1.29646271
  WF centre and spread   27  (  4.199861,  1.400062,  3.850125 )     1.07733662
  WF centre and spread   28  (  4.197259,  1.418200,  3.849341 )     1.35511734
  WF centre and spread   29  (  4.185981,  1.407748,  3.849142 )     1.35900623
  WF centre and spread   30  (  4.199829,  4.199881,  3.851174 )     1.07374192
  WF centre and spread   31  (  4.197427,  4.188163,  3.850963 )     1.35585361
  WF centre and spread   32  (  4.185368,  4.197208,  3.851287 )     1.34988285
  WF centre and spread   33  (  4.200085,  1.399948,  0.001267 )     1.09451110
  WF centre and spread   34  (  4.182946,  1.421717, -0.000328 )     1.29447688
  WF centre and spread   35  (  4.180046,  1.418321, -0.000540 )     1.29868255
  WF centre and spread   36  (  4.200164,  4.200048,  0.000822 )     1.09488270
  WF centre and spread   37  (  4.191125,  4.188353,  0.000871 )     1.30042280
  WF centre and spread   38  (  4.186546,  4.191812,  0.001029 )     1.28523066
  WF centre and spread   39  (  1.399994,  4.199981,  3.849336 )     1.07400613
  WF centre and spread   40  (  1.403093,  4.182252,  3.849202 )     1.35433853
  WF centre and spread   41  (  1.419552,  4.195909,  3.849460 )     1.34671713
  WF centre and spread   42  (  1.400172,  1.400184,  3.849862 )     1.07649641
  WF centre and spread   43  (  1.408529,  1.416075,  3.851460 )     1.35885771
  WF centre and spread   44  (  1.410047,  1.408278,  3.851384 )     1.36118556
  WF centre and spread   45  ( -0.000367,  0.000036,  1.914003 )     1.36324680
  WF centre and spread   46  (  0.000104,  0.000679,  1.925027 )     1.01014478
  WF centre and spread   47  (  0.000778, -0.000988,  1.924880 )     1.00986847
  WF centre and spread   48  ( -0.000243,  0.000084,  5.780715 )     1.36536085
  WF centre and spread   49  ( -0.000103,  0.000944,  5.775019 )     1.01149465
  WF centre and spread   50  (  0.000685,  0.000171,  5.774855 )     1.00939380
  WF centre and spread   51  (  2.800173,  2.800620,  5.781550 )     1.38251708
  WF centre and spread   52  (  2.801337,  2.800318,  5.774800 )     1.00144368
  WF centre and spread   53  (  2.799915,  2.799496,  5.774890 )     1.00063634
  WF centre and spread   54  (  2.799592,  2.800011,  1.918736 )     1.38388592
  WF centre and spread   55  (  2.801339,  2.800088,  1.925214 )     1.00184587
  WF centre and spread   56  (  2.799870,  2.798743,  1.925277 )     1.00071708
  Sum of centres and spreads (110.521363,113.770806,130.927490 )   265.59256318

   5000    -0.932E-03     2.5902195956      265.5925631653     339.53  <-- CONV
        O_D=      1.5300318 O_OD=    101.8512875 O_TOT=    265.5925632 <-- SPRD
 Delta: O_D= -0.1693166E-03 O_OD= -0.7625951E-03 O_TOT= -0.9319117E-03 <-- DLTA
 ------------------------------------------------------------------------------
 Final State
  WF centre and spread    1  (  0.000403,  0.000453, -0.000950 )     1.39360417
  WF centre and spread    2  ( -0.000389,  0.000410,  0.001057 )     1.39249021
  WF centre and spread    3  (  0.000115, -0.000164, -0.000017 )     1.38401303
  WF centre and spread    4  (  0.000492,  0.000515,  3.849215 )     1.38997216
  WF centre and spread    5  ( -0.000546,  0.000466,  3.850866 )     1.39141394
  WF centre and spread    6  ( -0.000026, -0.000021,  3.850011 )     1.38408690
  WF centre and spread    7  (  2.800080,  2.800060,  3.848315 )     1.38136503
  WF centre and spread    8  (  2.799729,  2.800338,  3.851172 )     1.38379451
  WF centre and spread    9  (  2.799916,  2.800039,  3.850001 )     1.38595887
  WF centre and spread   10  (  2.799917,  2.799895, -0.001567 )     1.37978715
  WF centre and spread   11  (  2.799602,  2.800384,  0.001054 )     1.37994541
  WF centre and spread   12  (  2.799788,  2.800130, -0.000022 )     1.38279560
  WF centre and spread   13  ( -0.108512,  0.231000,  0.066779 )    33.63581004
  WF centre and spread   14  ( -0.086559,  0.111310,  0.013770 )    14.70401316
  WF centre and spread   15  ( -0.139959,  0.117203,  3.730137 )    34.14277132
  WF centre and spread   16  ( -0.003620,  0.141865,  3.876717 )    15.29295145
  WF centre and spread   17  (  2.336921,  3.493478,  3.995661 )    30.27076491
  WF centre and spread   18  (  3.015629,  2.939551,  3.828010 )    16.91151902
  WF centre and spread   19  (  1.741475,  2.865379, -0.156834 )    32.19703883
  WF centre and spread   20  (  2.963618,  3.038263,  0.072819 )    28.38951529
  WF centre and spread   21  (  1.399756,  4.200270,  0.000768 )     1.09468962
  WF centre and spread   22  (  1.414313,  4.181869, -0.000629 )     1.29154998
  WF centre and spread   23  (  1.417614,  4.187359, -0.000761 )     1.29809967
  WF centre and spread   24  (  1.399818,  1.399909, -0.000420 )     1.09932729
  WF centre and spread   25  (  1.409562,  1.414673,  0.000798 )     1.28752087
  WF centre and spread   26  (  1.411123,  1.411835,  0.000718 )     1.29646271
  WF centre and spread   27  (  4.199861,  1.400062,  3.850125 )     1.07733662
  WF centre and spread   28  (  4.197259,  1.418200,  3.849341 )     1.35511734
  WF centre and spread   29  (  4.185981,  1.407748,  3.849142 )     1.35900623
  WF centre and spread   30  (  4.199829,  4.199881,  3.851174 )     1.07374192
  WF centre and spread   31  (  4.197427,  4.188163,  3.850963 )     1.35585361
  WF centre and spread   32  (  4.185368,  4.197208,  3.851287 )     1.34988285
  WF centre and spread   33  (  4.200085,  1.399948,  0.001267 )     1.09451110
  WF centre and spread   34  (  4.182946,  1.421717, -0.000328 )     1.29447688
  WF centre and spread   35  (  4.180046,  1.418321, -0.000540 )     1.29868255
  WF centre and spread   36  (  4.200164,  4.200048,  0.000822 )     1.09488270
  WF centre and spread   37  (  4.191125,  4.188353,  0.000871 )     1.30042280
  WF centre and spread   38  (  4.186546,  4.191812,  0.001029 )     1.28523066
  WF centre and spread   39  (  1.399994,  4.199981,  3.849336 )     1.07400613
  WF centre and spread   40  (  1.403093,  4.182252,  3.849202 )     1.35433853
  WF centre and spread   41  (  1.419552,  4.195909,  3.849460 )     1.34671713
  WF centre and spread   42  (  1.400172,  1.400184,  3.849862 )     1.07649641
  WF centre and spread   43  (  1.408529,  1.416075,  3.851460 )     1.35885771
  WF centre and spread   44  (  1.410047,  1.408278,  3.851384 )     1.36118556
  WF centre and spread   45  ( -0.000367,  0.000036,  1.914003 )     1.36324680
  WF centre and spread   46  (  0.000104,  0.000679,  1.925027 )     1.01014478
  WF centre and spread   47  (  0.000778, -0.000988,  1.924880 )     1.00986847
  WF centre and spread   48  ( -0.000243,  0.000084,  5.780715 )     1.36536085
  WF centre and spread   49  ( -0.000103,  0.000944,  5.775019 )     1.01149465
  WF centre and spread   50  (  0.000685,  0.000171,  5.774855 )     1.00939380
  WF centre and spread   51  (  2.800173,  2.800620,  5.781550 )     1.38251708
  WF centre and spread   52  (  2.801337,  2.800318,  5.774800 )     1.00144368
  WF centre and spread   53  (  2.799915,  2.799496,  5.774890 )     1.00063634
  WF centre and spread   54  (  2.799592,  2.800011,  1.918736 )     1.38388592
  WF centre and spread   55  (  2.801339,  2.800088,  1.925214 )     1.00184587
  WF centre and spread   56  (  2.799870,  2.798743,  1.925277 )     1.00071708
  Sum of centres and spreads (110.521363,113.770806,130.927490 )   265.59256318

         Spreads (Ang^2)       Omega I      =   162.211243878
        ================       Omega D      =     1.530031834
                               Omega OD     =   101.851287454
    Final Spread (Ang^2)       Omega Total  =   265.592563165
 ------------------------------------------------------------------------------

 Writing checkpoint file smo.chk... done

  
  Omega Invariant:   1-s^2 =   162.211243896 (Ang^2)
                   -2log s =  1959.744115922 (Ang^2)
                    acos^2 =   289.789036873 (Ang^2)
 *---------------------------------------------------------------------------*
 |                               PLOTTING                                    |
 *---------------------------------------------------------------------------*


 Calculating interpolated band-structure

 Time to calculate interpolated band structure      11.463 (sec)


 *===========================================================================*
 |                             TIMING INFORMATION                            |
 *===========================================================================*
 |    Tag                                                Ncalls      Time (s)|
 |---------------------------------------------------------------------------|
 |kmesh: get                                        :         1         0.047|
 |overlap: read                                     :         1         2.059|
 |wann: main                                        :         1       339.521|
 |plot: main                                        :         1        12.592|
 *---------------------------------------------------------------------------*
