
             +---------------------------------------------------+
             |                                                   |
             |                   WANNIER90                       |
             |                                                   |
             +---------------------------------------------------+
             |                                                   |
             |        Welcome to the Maximally-Localized         |
             |        Generalized Wannier Functions code         |
             |            http://www.wannier.org                 |
             |                                                   |
             |                                                   |
             |  Wannier90 Developer Group:                       |
             |    Giovanni Pizzi    (Paul Scherrer Institute)    |
             |    Valerio Vitale    (University of Trieste)      |
             |    David Vanderbilt  (Rutgers University)         |
             |    Nicola Marzari    (EPFL)                       |
             |    Ivo Souza         (Universidad del Pais Vasco) |
             |    Arash A. Mostofi  (Imperial College London)    |
             |    Jonathan R. Yates (University of Oxford)       |
             |                                                   |
             |  For the full list of Wannier90 3.x authors,      |
             |  please check the code documentation and the      |
             |  README on the GitHub page of the code            |
             |                                                   |
             |                                                   |
             |  Please cite                                      |
             |                                                   |
             |  [ref] "Wannier90 as a community code:            |
             |        new features and applications",            |
             |        G. Pizzi et al., J. Phys. Cond. Matt. 32,  |
             |        165902 (2020).                             |
             |        http://doi.org/10.1088/1361-648X/ab51ff    |
             |                                                   |
             |  in any publications arising from the use of      |
             |  this code. For the method please cite            |
             |                                                   |
             |  [ref] "Maximally Localized Generalised Wannier   |
             |         Functions for Composite Energy Bands"     |
             |         N. Marzari and D. Vanderbilt              |
             |         Phys. Rev. B 56 12847 (1997)              |
             |                                                   |
             |  [ref] "Maximally Localized Wannier Functions     |
             |         for Entangled Energy Bands"               |
             |         I. Souza, N. Marzari and D. Vanderbilt    |
             |         Phys. Rev. B 65 035109 (2001)             |
             |                                                   |
             |                                                   |
             | Copyright (c) 1996-2020                           |
             |        The Wannier90 Developer Group and          |
             |        individual contributors                    |
             |                                                   |
             |      Release: 3.1.0        5th March    2020      |
             |                                                   |
             | This program is free software; you can            |
             | redistribute it and/or modify it under the terms  |
             | of the GNU General Public License as published by |
             | the Free Software Foundation; either version 2 of |
             | the License, or (at your option) any later version|
             |                                                   |
             | This program is distributed in the hope that it   |
             | will be useful, but WITHOUT ANY WARRANTY; without |
             | even the implied warranty of MERCHANTABILITY or   |
             | FITNESS FOR A PARTICULAR PURPOSE. See the GNU     |
             | General Public License for more details.          |
             |                                                   |
             | You should have received a copy of the GNU General|
             | Public License along with this program; if not,   |
             | write to the Free Software Foundation, Inc.,      |
             | 675 Mass Ave, Cambridge, MA 02139, USA.           |
             |                                                   |
             +---------------------------------------------------+
             |    Execution started on 20Dec2025 at 08:38:07     |
             +---------------------------------------------------+
 
 ******************************************************************************
 * -> Using CODATA 2006 constant values                                       *
 *    (http://physics.nist.gov/cuu/Constants/index.html)                      *
 * -> Using Bohr value from CODATA                                            *
 ******************************************************************************
 

 Running in parallel on  32 CPUs


                                    ------
                                    SYSTEM
                                    ------

                              Lattice Vectors (Ang)
                    a_1     5.600000   0.000000   0.000000
                    a_2     0.000000   5.600000   0.000000
                    a_3     0.000000   0.000000   7.700000

                   Unit Cell Volume:     241.47200  (Ang^3)

                        Reciprocal-Space Vectors (Ang^-1)
                    b_1     1.121997   0.000000   0.000000
                    b_2     0.000000   1.121997   0.000000
                    b_3     0.000000   0.000000   0.815998
  
 *----------------------------------------------------------------------------*
 |   Site       Fractional Coordinate          Cartesian Coordinate (Ang)     |
 +----------------------------------------------------------------------------+
 | sr   1   0.00000   0.50000   0.25000   |    0.00000   2.80000   1.92500    |
 | sr   2   0.00000   0.50000   0.75000   |    0.00000   2.80000   5.77500    |
 | sr   3   0.50000   0.00000   0.75000   |    2.80000   0.00000   5.77500    |
 | sr   4   0.50000   0.00000   0.25000   |    2.80000   0.00000   1.92500    |
 | mo   1   0.00000   0.00000   0.00000   |    0.00000   0.00000   0.00000    |
 | mo   2   0.00000   0.00000   0.50000   |    0.00000   0.00000   3.85000    |
 | mo   3   0.50000   0.50000   0.50000   |    2.80000   2.80000   3.85000    |
 | mo   4   0.50000   0.50000   0.00000   |    2.80000   2.80000   0.00000    |
 | o    1   0.25000   0.75000   0.00000   |    1.40000   4.20000   0.00000    |
 | o    2   0.25000   0.25000   0.00000   |    1.40000   1.40000   0.00000    |
 | o    3   0.75000   0.25000   0.50000   |    4.20000   1.40000   3.85000    |
 | o    4   0.75000   0.75000   0.50000   |    4.20000   4.20000   3.85000    |
 | o    5   0.75000   0.25000   0.00000   |    4.20000   1.40000   0.00000    |
 | o    6   0.75000   0.75000   0.00000   |    4.20000   4.20000   0.00000    |
 | o    7   0.25000   0.75000   0.50000   |    1.40000   4.20000   3.85000    |
 | o    8   0.25000   0.25000   0.50000   |    1.40000   1.40000   3.85000    |
 | o    9   0.00000   0.00000   0.25000   |    0.00000   0.00000   1.92500    |
 | o   10   0.00000   0.00000   0.75000   |    0.00000   0.00000   5.77500    |
 | o   11   0.50000   0.50000   0.75000   |    2.80000   2.80000   5.77500    |
 | o   12   0.50000   0.50000   0.25000   |    2.80000   2.80000   1.92500    |
 *----------------------------------------------------------------------------*
                                -----------
                                PROJECTIONS
                                -----------
  
 +----------------------------------------------------------------------------+
 |     Frac. Coord.   l mr  r        z-axis               x-axis          Z/a |
 +----------------------------------------------------------------------------+
 |  0.00  0.00  0.00  2  1  1  0.000  0.000  1.000  1.000  0.000  0.000   1.0 |
 |  0.00  0.00  0.00  2  2  1  0.000  0.000  1.000  1.000  0.000  0.000   1.0 |
 |  0.00  0.00  0.00  2  3  1  0.000  0.000  1.000  1.000  0.000  0.000   1.0 |
 |  0.00  0.00  0.00  2  4  1  0.000  0.000  1.000  1.000  0.000  0.000   1.0 |
 |  0.00  0.00  0.00  2  5  1  0.000  0.000  1.000  1.000  0.000  0.000   1.0 |
 |  0.00  0.00  0.50  2  1  1  0.000  0.000  1.000  1.000  0.000  0.000   1.0 |
 |  0.00  0.00  0.50  2  2  1  0.000  0.000  1.000  1.000  0.000  0.000   1.0 |
 |  0.00  0.00  0.50  2  3  1  0.000  0.000  1.000  1.000  0.000  0.000   1.0 |
 |  0.00  0.00  0.50  2  4  1  0.000  0.000  1.000  1.000  0.000  0.000   1.0 |
 |  0.00  0.00  0.50  2  5  1  0.000  0.000  1.000  1.000  0.000  0.000   1.0 |
 |  0.50  0.50  0.50  2  1  1  0.000  0.000  1.000  1.000  0.000  0.000   1.0 |
 |  0.50  0.50  0.50  2  2  1  0.000  0.000  1.000  1.000  0.000  0.000   1.0 |
 |  0.50  0.50  0.50  2  3  1  0.000  0.000  1.000  1.000  0.000  0.000   1.0 |
 |  0.50  0.50  0.50  2  4  1  0.000  0.000  1.000  1.000  0.000  0.000   1.0 |
 |  0.50  0.50  0.50  2  5  1  0.000  0.000  1.000  1.000  0.000  0.000   1.0 |
 |  0.50  0.50  0.00  2  1  1  0.000  0.000  1.000  1.000  0.000  0.000   1.0 |
 |  0.50  0.50  0.00  2  2  1  0.000  0.000  1.000  1.000  0.000  0.000   1.0 |
 |  0.50  0.50  0.00  2  3  1  0.000  0.000  1.000  1.000  0.000  0.000   1.0 |
 |  0.50  0.50  0.00  2  4  1  0.000  0.000  1.000  1.000  0.000  0.000   1.0 |
 |  0.50  0.50  0.00  2  5  1  0.000  0.000  1.000  1.000  0.000  0.000   1.0 |
 |  0.25  0.75  0.00  1  1  1  0.000  0.000  1.000  1.000  0.000  0.000   1.0 |
 |  0.25  0.75  0.00  1  2  1  0.000  0.000  1.000  1.000  0.000  0.000   1.0 |
 |  0.25  0.75  0.00  1  3  1  0.000  0.000  1.000  1.000  0.000  0.000   1.0 |
 |  0.25  0.25  0.00  1  1  1  0.000  0.000  1.000  1.000  0.000  0.000   1.0 |
 |  0.25  0.25  0.00  1  2  1  0.000  0.000  1.000  1.000  0.000  0.000   1.0 |
 |  0.25  0.25  0.00  1  3  1  0.000  0.000  1.000  1.000  0.000  0.000   1.0 |
 |  0.75  0.25  0.50  1  1  1  0.000  0.000  1.000  1.000  0.000  0.000   1.0 |
 |  0.75  0.25  0.50  1  2  1  0.000  0.000  1.000  1.000  0.000  0.000   1.0 |
 |  0.75  0.25  0.50  1  3  1  0.000  0.000  1.000  1.000  0.000  0.000   1.0 |
 |  0.75  0.75  0.50  1  1  1  0.000  0.000  1.000  1.000  0.000  0.000   1.0 |
 |  0.75  0.75  0.50  1  2  1  0.000  0.000  1.000  1.000  0.000  0.000   1.0 |
 |  0.75  0.75  0.50  1  3  1  0.000  0.000  1.000  1.000  0.000  0.000   1.0 |
 |  0.75  0.25  0.00  1  1  1  0.000  0.000  1.000  1.000  0.000  0.000   1.0 |
 |  0.75  0.25  0.00  1  2  1  0.000  0.000  1.000  1.000  0.000  0.000   1.0 |
 |  0.75  0.25  0.00  1  3  1  0.000  0.000  1.000  1.000  0.000  0.000   1.0 |
 |  0.75  0.75  0.00  1  1  1  0.000  0.000  1.000  1.000  0.000  0.000   1.0 |
 |  0.75  0.75  0.00  1  2  1  0.000  0.000  1.000  1.000  0.000  0.000   1.0 |
 |  0.75  0.75  0.00  1  3  1  0.000  0.000  1.000  1.000  0.000  0.000   1.0 |
 |  0.25  0.75  0.50  1  1  1  0.000  0.000  1.000  1.000  0.000  0.000   1.0 |
 |  0.25  0.75  0.50  1  2  1  0.000  0.000  1.000  1.000  0.000  0.000   1.0 |
 |  0.25  0.75  0.50  1  3  1  0.000  0.000  1.000  1.000  0.000  0.000   1.0 |
 |  0.25  0.25  0.50  1  1  1  0.000  0.000  1.000  1.000  0.000  0.000   1.0 |
 |  0.25  0.25  0.50  1  2  1  0.000  0.000  1.000  1.000  0.000  0.000   1.0 |
 |  0.25  0.25  0.50  1  3  1  0.000  0.000  1.000  1.000  0.000  0.000   1.0 |
 |  0.00  0.00  0.25  1  1  1  0.000  0.000  1.000  1.000  0.000  0.000   1.0 |
 |  0.00  0.00  0.25  1  2  1  0.000  0.000  1.000  1.000  0.000  0.000   1.0 |
 |  0.00  0.00  0.25  1  3  1  0.000  0.000  1.000  1.000  0.000  0.000   1.0 |
 |  0.00  0.00  0.75  1  1  1  0.000  0.000  1.000  1.000  0.000  0.000   1.0 |
 |  0.00  0.00  0.75  1  2  1  0.000  0.000  1.000  1.000  0.000  0.000   1.0 |
 |  0.00  0.00  0.75  1  3  1  0.000  0.000  1.000  1.000  0.000  0.000   1.0 |
 |  0.50  0.50  0.75  1  1  1  0.000  0.000  1.000  1.000  0.000  0.000   1.0 |
 |  0.50  0.50  0.75  1  2  1  0.000  0.000  1.000  1.000  0.000  0.000   1.0 |
 |  0.50  0.50  0.75  1  3  1  0.000  0.000  1.000  1.000  0.000  0.000   1.0 |
 |  0.50  0.50  0.25  1  1  1  0.000  0.000  1.000  1.000  0.000  0.000   1.0 |
 |  0.50  0.50  0.25  1  2  1  0.000  0.000  1.000  1.000  0.000  0.000   1.0 |
 |  0.50  0.50  0.25  1  3  1  0.000  0.000  1.000  1.000  0.000  0.000   1.0 |
 +----------------------------------------------------------------------------+
  
                                ------------
                                K-POINT GRID
                                ------------
  
             Grid size =  5 x  5 x  5      Total points =  125
  
 *----------------------------------------------------------------------------*
 | k-point      Fractional Coordinate        Cartesian Coordinate (Ang^-1)    |
 +----------------------------------------------------------------------------+
 |     1    0.00000   0.00000   0.00000   |    0.00000   0.00000   0.00000    |
 |     2    0.00000   0.00000   0.20000   |    0.00000   0.00000   0.16320    |
 |     3    0.00000   0.00000   0.40000   |    0.00000   0.00000   0.32640    |
 |     4    0.00000   0.00000   0.60000   |    0.00000   0.00000   0.48960    |
 |     5    0.00000   0.00000   0.80000   |    0.00000   0.00000   0.65280    |
 |     6    0.00000   0.20000   0.00000   |    0.00000   0.22440   0.00000    |
 |     7    0.00000   0.20000   0.20000   |    0.00000   0.22440   0.16320    |
 |     8    0.00000   0.20000   0.40000   |    0.00000   0.22440   0.32640    |
 |     9    0.00000   0.20000   0.60000   |    0.00000   0.22440   0.48960    |
 |    10    0.00000   0.20000   0.80000   |    0.00000   0.22440   0.65280    |
 |    11    0.00000   0.40000   0.00000   |    0.00000   0.44880   0.00000    |
 |    12    0.00000   0.40000   0.20000   |    0.00000   0.44880   0.16320    |
 |    13    0.00000   0.40000   0.40000   |    0.00000   0.44880   0.32640    |
 |    14    0.00000   0.40000   0.60000   |    0.00000   0.44880   0.48960    |
 |    15    0.00000   0.40000   0.80000   |    0.00000   0.44880   0.65280    |
 |    16    0.00000   0.60000   0.00000   |    0.00000   0.67320   0.00000    |
 |    17    0.00000   0.60000   0.20000   |    0.00000   0.67320   0.16320    |
 |    18    0.00000   0.60000   0.40000   |    0.00000   0.67320   0.32640    |
 |    19    0.00000   0.60000   0.60000   |    0.00000   0.67320   0.48960    |
 |    20    0.00000   0.60000   0.80000   |    0.00000   0.67320   0.65280    |
 |    21    0.00000   0.80000   0.00000   |    0.00000   0.89760   0.00000    |
 |    22    0.00000   0.80000   0.20000   |    0.00000   0.89760   0.16320    |
 |    23    0.00000   0.80000   0.40000   |    0.00000   0.89760   0.32640    |
 |    24    0.00000   0.80000   0.60000   |    0.00000   0.89760   0.48960    |
 |    25    0.00000   0.80000   0.80000   |    0.00000   0.89760   0.65280    |
 |    26    0.20000   0.00000   0.00000   |    0.22440   0.00000   0.00000    |
 |    27    0.20000   0.00000   0.20000   |    0.22440   0.00000   0.16320    |
 |    28    0.20000   0.00000   0.40000   |    0.22440   0.00000   0.32640    |
 |    29    0.20000   0.00000   0.60000   |    0.22440   0.00000   0.48960    |
 |    30    0.20000   0.00000   0.80000   |    0.22440   0.00000   0.65280    |
 |    31    0.20000   0.20000   0.00000   |    0.22440   0.22440   0.00000    |
 |    32    0.20000   0.20000   0.20000   |    0.22440   0.22440   0.16320    |
 |    33    0.20000   0.20000   0.40000   |    0.22440   0.22440   0.32640    |
 |    34    0.20000   0.20000   0.60000   |    0.22440   0.22440   0.48960    |
 |    35    0.20000   0.20000   0.80000   |    0.22440   0.22440   0.65280    |
 |    36    0.20000   0.40000   0.00000   |    0.22440   0.44880   0.00000    |
 |    37    0.20000   0.40000   0.20000   |    0.22440   0.44880   0.16320    |
 |    38    0.20000   0.40000   0.40000   |    0.22440   0.44880   0.32640    |
 |    39    0.20000   0.40000   0.60000   |    0.22440   0.44880   0.48960    |
 |    40    0.20000   0.40000   0.80000   |    0.22440   0.44880   0.65280    |
 |    41    0.20000   0.60000   0.00000   |    0.22440   0.67320   0.00000    |
 |    42    0.20000   0.60000   0.20000   |    0.22440   0.67320   0.16320    |
 |    43    0.20000   0.60000   0.40000   |    0.22440   0.67320   0.32640    |
 |    44    0.20000   0.60000   0.60000   |    0.22440   0.67320   0.48960    |
 |    45    0.20000   0.60000   0.80000   |    0.22440   0.67320   0.65280    |
 |    46    0.20000   0.80000   0.00000   |    0.22440   0.89760   0.00000    |
 |    47    0.20000   0.80000   0.20000   |    0.22440   0.89760   0.16320    |
 |    48    0.20000   0.80000   0.40000   |    0.22440   0.89760   0.32640    |
 |    49    0.20000   0.80000   0.60000   |    0.22440   0.89760   0.48960    |
 |    50    0.20000   0.80000   0.80000   |    0.22440   0.89760   0.65280    |
 |    51    0.40000   0.00000   0.00000   |    0.44880   0.00000   0.00000    |
 |    52    0.40000   0.00000   0.20000   |    0.44880   0.00000   0.16320    |
 |    53    0.40000   0.00000   0.40000   |    0.44880   0.00000   0.32640    |
 |    54    0.40000   0.00000   0.60000   |    0.44880   0.00000   0.48960    |
 |    55    0.40000   0.00000   0.80000   |    0.44880   0.00000   0.65280    |
 |    56    0.40000   0.20000   0.00000   |    0.44880   0.22440   0.00000    |
 |    57    0.40000   0.20000   0.20000   |    0.44880   0.22440   0.16320    |
 |    58    0.40000   0.20000   0.40000   |    0.44880   0.22440   0.32640    |
 |    59    0.40000   0.20000   0.60000   |    0.44880   0.22440   0.48960    |
 |    60    0.40000   0.20000   0.80000   |    0.44880   0.22440   0.65280    |
 |    61    0.40000   0.40000   0.00000   |    0.44880   0.44880   0.00000    |
 |    62    0.40000   0.40000   0.20000   |    0.44880   0.44880   0.16320    |
 |    63    0.40000   0.40000   0.40000   |    0.44880   0.44880   0.32640    |
 |    64    0.40000   0.40000   0.60000   |    0.44880   0.44880   0.48960    |
 |    65    0.40000   0.40000   0.80000   |    0.44880   0.44880   0.65280    |
 |    66    0.40000   0.60000   0.00000   |    0.44880   0.67320   0.00000    |
 |    67    0.40000   0.60000   0.20000   |    0.44880   0.67320   0.16320    |
 |    68    0.40000   0.60000   0.40000   |    0.44880   0.67320   0.32640    |
 |    69    0.40000   0.60000   0.60000   |    0.44880   0.67320   0.48960    |
 |    70    0.40000   0.60000   0.80000   |    0.44880   0.67320   0.65280    |
 |    71    0.40000   0.80000   0.00000   |    0.44880   0.89760   0.00000    |
 |    72    0.40000   0.80000   0.20000   |    0.44880   0.89760   0.16320    |
 |    73    0.40000   0.80000   0.40000   |    0.44880   0.89760   0.32640    |
 |    74    0.40000   0.80000   0.60000   |    0.44880   0.89760   0.48960    |
 |    75    0.40000   0.80000   0.80000   |    0.44880   0.89760   0.65280    |
 |    76    0.60000   0.00000   0.00000   |    0.67320   0.00000   0.00000    |
 |    77    0.60000   0.00000   0.20000   |    0.67320   0.00000   0.16320    |
 |    78    0.60000   0.00000   0.40000   |    0.67320   0.00000   0.32640    |
 |    79    0.60000   0.00000   0.60000   |    0.67320   0.00000   0.48960    |
 |    80    0.60000   0.00000   0.80000   |    0.67320   0.00000   0.65280    |
 |    81    0.60000   0.20000   0.00000   |    0.67320   0.22440   0.00000    |
 |    82    0.60000   0.20000   0.20000   |    0.67320   0.22440   0.16320    |
 |    83    0.60000   0.20000   0.40000   |    0.67320   0.22440   0.32640    |
 |    84    0.60000   0.20000   0.60000   |    0.67320   0.22440   0.48960    |
 |    85    0.60000   0.20000   0.80000   |    0.67320   0.22440   0.65280    |
 |    86    0.60000   0.40000   0.00000   |    0.67320   0.44880   0.00000    |
 |    87    0.60000   0.40000   0.20000   |    0.67320   0.44880   0.16320    |
 |    88    0.60000   0.40000   0.40000   |    0.67320   0.44880   0.32640    |
 |    89    0.60000   0.40000   0.60000   |    0.67320   0.44880   0.48960    |
 |    90    0.60000   0.40000   0.80000   |    0.67320   0.44880   0.65280    |
 |    91    0.60000   0.60000   0.00000   |    0.67320   0.67320   0.00000    |
 |    92    0.60000   0.60000   0.20000   |    0.67320   0.67320   0.16320    |
 |    93    0.60000   0.60000   0.40000   |    0.67320   0.67320   0.32640    |
 |    94    0.60000   0.60000   0.60000   |    0.67320   0.67320   0.48960    |
 |    95    0.60000   0.60000   0.80000   |    0.67320   0.67320   0.65280    |
 |    96    0.60000   0.80000   0.00000   |    0.67320   0.89760   0.00000    |
 |    97    0.60000   0.80000   0.20000   |    0.67320   0.89760   0.16320    |
 |    98    0.60000   0.80000   0.40000   |    0.67320   0.89760   0.32640    |
 |    99    0.60000   0.80000   0.60000   |    0.67320   0.89760   0.48960    |
 |   100    0.60000   0.80000   0.80000   |    0.67320   0.89760   0.65280    |
 |   101    0.80000   0.00000   0.00000   |    0.89760   0.00000   0.00000    |
 |   102    0.80000   0.00000   0.20000   |    0.89760   0.00000   0.16320    |
 |   103    0.80000   0.00000   0.40000   |    0.89760   0.00000   0.32640    |
 |   104    0.80000   0.00000   0.60000   |    0.89760   0.00000   0.48960    |
 |   105    0.80000   0.00000   0.80000   |    0.89760   0.00000   0.65280    |
 |   106    0.80000   0.20000   0.00000   |    0.89760   0.22440   0.00000    |
 |   107    0.80000   0.20000   0.20000   |    0.89760   0.22440   0.16320    |
 |   108    0.80000   0.20000   0.40000   |    0.89760   0.22440   0.32640    |
 |   109    0.80000   0.20000   0.60000   |    0.89760   0.22440   0.48960    |
 |   110    0.80000   0.20000   0.80000   |    0.89760   0.22440   0.65280    |
 |   111    0.80000   0.40000   0.00000   |    0.89760   0.44880   0.00000    |
 |   112    0.80000   0.40000   0.20000   |    0.89760   0.44880   0.16320    |
 |   113    0.80000   0.40000   0.40000   |    0.89760   0.44880   0.32640    |
 |   114    0.80000   0.40000   0.60000   |    0.89760   0.44880   0.48960    |
 |   115    0.80000   0.40000   0.80000   |    0.89760   0.44880   0.65280    |
 |   116    0.80000   0.60000   0.00000   |    0.89760   0.67320   0.00000    |
 |   117    0.80000   0.60000   0.20000   |    0.89760   0.67320   0.16320    |
 |   118    0.80000   0.60000   0.40000   |    0.89760   0.67320   0.32640    |
 |   119    0.80000   0.60000   0.60000   |    0.89760   0.67320   0.48960    |
 |   120    0.80000   0.60000   0.80000   |    0.89760   0.67320   0.65280    |
 |   121    0.80000   0.80000   0.00000   |    0.89760   0.89760   0.00000    |
 |   122    0.80000   0.80000   0.20000   |    0.89760   0.89760   0.16320    |
 |   123    0.80000   0.80000   0.40000   |    0.89760   0.89760   0.32640    |
 |   124    0.80000   0.80000   0.60000   |    0.89760   0.89760   0.48960    |
 |   125    0.80000   0.80000   0.80000   |    0.89760   0.89760   0.65280    |
 *----------------------------------------------------------------------------*
  
  
 *---------------------------------- MAIN ------------------------------------*
 |  Number of Wannier Functions               :                56             |
 |  Number of Objective Wannier Functions     :                56             |
 |  Number of input Bloch states              :                68             |
 |  Output verbosity (1=low, 5=high)          :                 2             |
 |  Timing Level (1=low, 5=high)              :                 1             |
 |  Optimisation (0=memory, 3=speed)          :                 3             |
 |  Length Unit                               :               Ang             |
 |  Post-processing setup (write *.nnkp)      :                 F             |
 |  Using Gamma-only branch of algorithms     :                 F             |
 *----------------------------------------------------------------------------*
 *------------------------------- WANNIERISE ---------------------------------*
 |  Total number of iterations                :              5000             |
 |  Number of CG steps before reset           :                 5             |
 |  Trial step length for line search         :             2.000             |
 |  Convergence tolerence                     :         0.100E-11             |
 |  Convergence window                        :                 5             |
 |  Iterations between writing output         :               200             |
 |  Iterations between backing up to disk     :               100             |
 |  Write r^2_nm to file                      :                 F             |
 |  Write xyz WF centres to file              :                 F             |
 |  Write on-site energies <0n|H|0n> to file  :                 F             |
 |  Use guiding centre to control phases      :                 F             |
 |  Use phases for initial projections        :                 F             |
 *----------------------------------------------------------------------------*
 *------------------------------- DISENTANGLE --------------------------------*
 |  Using band disentanglement                :                 T             |
 |  Total number of iterations                :             10000             |
 |  Mixing ratio                              :             0.500             |
 |  Convergence tolerence                     :         1.000E-09             |
 |  Convergence window                        :                 3             |
 *----------------------------------------------------------------------------*
 *-------------------------------- PLOTTING ----------------------------------*
 |  Plotting interpolated bandstructure       :                 T             |
 |   Number of K-path sections                :                 7             |
 |   Divisions along first K-path section     :               100             |
 |   Output format                            :           gnuplot             |
 |   Output mode                              :               s-k             |
 *----------------------------------------------------------------------------*
 |   K-space path sections:                                                   |
 |    From: G       0.000  0.000  0.000     To: X       0.000  0.500  0.000   |
 |    From: X       0.000  0.500  0.000     To: M       0.500  0.500  0.000   |
 |    From: M       0.500  0.500  0.000     To: G       0.000  0.000  0.000   |
 |    From: G       0.000  0.000  0.000     To: Z       0.000  0.000  0.500   |
 |    From: Z       0.000  0.000  0.500     To: R       0.000  0.500  0.500   |
 |    From: R       0.000  0.500  0.500     To: A       0.500  0.500  0.500   |
 |    From: A       0.500  0.500  0.500     To: Z       0.000  0.000  0.500   |
 *----------------------------------------------------------------------------*
 |  Plotting Hamiltonian in WF basis          :                 T             |
 *----------------------------------------------------------------------------*

 *---------------------------------- K-MESH ----------------------------------*
 +----------------------------------------------------------------------------+
 |                    Distance to Nearest-Neighbour Shells                    |
 |                    ------------------------------------                    |
 |          Shell             Distance (Ang^-1)          Multiplicity         |
 |          -----             -----------------          ------------         |
 |             1                   0.163200                      2            |
 |             2                   0.224399                      4            |
 |             3                   0.277469                      8            |
 |             4                   0.317349                      4            |
 |             5                   0.326399                      2            |
 |             6                   0.356853                      8            |
 |             7                   0.396095                      8            |
 |             8                   0.448799                      4            |
 |             9                   0.455244                      8            |
 |            10                   0.477551                      8            |
 |            11                   0.489599                      2            |
 |            12                   0.501772                      8            |
 |            13                   0.527645                     16            |
 |            14                   0.538574                      8            |
 |            15                   0.554939                      8            |
 |            16                   0.583453                      8            |
 |            17                   0.598592                     16            |
 |            18                   0.634698                      4            |
 |            19                   0.652798                      2            |
 |            20                   0.655344                      8            |
 |            21                   0.664174                      8            |
 |            22                   0.673198                      4            |
 |            23                   0.690290                      8            |
 |            24                   0.692698                      8            |
 |            25                   0.701058                     16            |
 |            26                   0.709613                      8            |
 |            27                   0.713707                      8            |
 |            28                   0.725849                      8            |
 |            29                   0.728138                     16            |
 |            30                   0.748153                      8            |
 |            31                   0.781081                     16            |
 |            32                   0.792191                      8            |
 |            33                   0.801591                      8            |
 |            34                   0.809084                      8            |
 |            35                   0.815998                      2            |
 |            36                   0.823360                     16            |
 +----------------------------------------------------------------------------+
 | The b-vectors are chosen automatically                                     |
 | Shell:  1 w_b   18.7729156      (Ang^2)                                    |
 | Shell:  1 w_b   18.7729156      (Ang^2)                                    |
 | Shell:  2 w_b    9.9294760      (Ang^2)                                    |
 | The following shells are used:   1,  2                                     |
 +----------------------------------------------------------------------------+
 |                        Shell   # Nearest-Neighbours                        |
 |                        -----   --------------------                        |
 |                          1               2                                 |
 |                          2               4                                 |
 +----------------------------------------------------------------------------+
 | Completeness relation is fully satisfied [Eq. (B1), PRB 56, 12847 (1997)]  |
 +----------------------------------------------------------------------------+
 |                  b_k Vectors (Ang^-1) and Weights (Ang^2)                  |
 |                  ----------------------------------------                  |
 |            No.         b_k(x)      b_k(y)      b_k(z)        w_b           |
 |            ---        --------------------------------     --------        |
 |             1         0.000000    0.000000    0.163200    18.772916        |
 |             2         0.000000    0.000000   -0.163200    18.772916        |
 |             3         0.000000    0.224399    0.000000     9.929476        |
 |             4         0.224399    0.000000    0.000000     9.929476        |
 |             5         0.000000   -0.224399    0.000000     9.929476        |
 |             6        -0.224399    0.000000    0.000000     9.929476        |
 +----------------------------------------------------------------------------+
 |                           b_k Directions (Ang^-1)                          |
 |                           -----------------------                          |
 |            No.           x           y           z                         |
 |            ---        --------------------------------                     |
 |             1         0.000000    0.000000    0.163200                     |
 |             2         0.000000    0.224399    0.000000                     |
 |             3         0.224399    0.000000    0.000000                     |
 +----------------------------------------------------------------------------+
  
 Starting a new Wannier90 calculation ...


 Reading overlaps from smo.mmn    :  Created on 20Dec2025 at  8:37:17

 Reading projections from smo.amn :  Created on 20Dec2025 at  8:35:35

 *------------------------------- DISENTANGLE --------------------------------*
 +----------------------------------------------------------------------------+
 |                              Energy  Windows                               |
 |                              ---------------                               |
 |                   Outer:    5.00000  to   20.00000  (eV)                   |
 |                   Inner:   12.00000  to   16.50000  (eV)                   |
 +----------------------------------------------------------------------------+
 |                        K-points with Frozen States                         |
 |                        ---------------------------                         |
 |     1     2     3     4     5     6     7     8     9    10    11    12    |
 |    13    14    15    16    17    18    19    20    21    22    23    24    |
 |    25    26    27    28    29    30    31    32    33    34    35    36    |
 |    37    38    39    40    41    42    43    44    45    46    47    48    |
 |    49    50    51    52    53    54    55    56    57    58    59    60    |
 |    61    62    63    64    65    66    67    68    69    70    71    72    |
 |    73    74    75    76    77    78    79    80    81    82    83    84    |
 |    85    86    87    88    89    90    91    92    93    94    95    96    |
 |    97    98    99   100   101   102   103   104   105   106   107   108    |
 |   109   110   111   112   113   114   115   116   117   118   119   120    |
 |   121   122   123   124   125                                              |
 +----------------------------------------------------------------------------+
   Number of target bands to extract:   56
 +----------------------------------------------------------------------------+
 |                                  Windows                                   |
 |                                  -------                                   |
 |               K-point      Ndimwin     Ndimfroz    Nfirstwin               |
 |               ----------------------------------------------               |
 |                   1           67           17           1                  |
 |                   2           67           15           1                  |
 |                   3           68           14           1                  |
 |                   4           68           14           1                  |
 |                   5           67           15           1                  |
 |                   6           67           13           1                  |
 |                   7           68           12           1                  |
 |                   8           68           12           1                  |
 |                   9           68           12           1                  |
 |                  10           68           12           1                  |
 |                  11           68           12           1                  |
 |                  12           68           12           1                  |
 |                  13           68           12           1                  |
 |                  14           68           12           1                  |
 |                  15           68           12           1                  |
 |                  16           68           12           1                  |
 |                  17           68           12           1                  |
 |                  18           68           12           1                  |
 |                  19           68           12           1                  |
 |                  20           68           12           1                  |
 |                  21           67           13           1                  |
 |                  22           68           12           1                  |
 |                  23           68           12           1                  |
 |                  24           68           12           1                  |
 |                  25           68           12           1                  |
 |                  26           67           13           1                  |
 |                  27           68           12           1                  |
 |                  28           68           12           1                  |
 |                  29           68           12           1                  |
 |                  30           68           12           1                  |
 |                  31           68           13           1                  |
 |                  32           68           12           1                  |
 |                  33           68           12           1                  |
 |                  34           68           12           1                  |
 |                  35           68           12           1                  |
 |                  36           68           12           1                  |
 |                  37           68           12           1                  |
 |                  38           68           12           1                  |
 |                  39           68           12           1                  |
 |                  40           68           12           1                  |
 |                  41           68           12           1                  |
 |                  42           68           12           1                  |
 |                  43           68           12           1                  |
 |                  44           68           12           1                  |
 |                  45           68           12           1                  |
 |                  46           68           13           1                  |
 |                  47           68           12           1                  |
 |                  48           68           12           1                  |
 |                  49           68           12           1                  |
 |                  50           68           12           1                  |
 |                  51           68           12           1                  |
 |                  52           68           12           1                  |
 |                  53           68           12           1                  |
 |                  54           68           12           1                  |
 |                  55           68           12           1                  |
 |                  56           68           12           1                  |
 |                  57           68           12           1                  |
 |                  58           68           12           1                  |
 |                  59           68           12           1                  |
 |                  60           68           12           1                  |
 |                  61           66           13           1                  |
 |                  62           67           12           1                  |
 |                  63           68           12           1                  |
 |                  64           68           12           1                  |
 |                  65           67           12           1                  |
 |                  66           66           13           1                  |
 |                  67           67           12           1                  |
 |                  68           68           12           1                  |
 |                  69           68           12           1                  |
 |                  70           67           12           1                  |
 |                  71           68           12           1                  |
 |                  72           68           12           1                  |
 |                  73           68           12           1                  |
 |                  74           68           12           1                  |
 |                  75           68           12           1                  |
 |                  76           68           12           1                  |
 |                  77           68           12           1                  |
 |                  78           68           12           1                  |
 |                  79           68           12           1                  |
 |                  80           68           12           1                  |
 |                  81           68           12           1                  |
 |                  82           68           12           1                  |
 |                  83           68           12           1                  |
 |                  84           68           12           1                  |
 |                  85           68           12           1                  |
 |                  86           66           13           1                  |
 |                  87           67           12           1                  |
 |                  88           68           12           1                  |
 |                  89           68           12           1                  |
 |                  90           67           12           1                  |
 |                  91           66           13           1                  |
 |                  92           67           12           1                  |
 |                  93           68           12           1                  |
 |                  94           68           12           1                  |
 |                  95           67           12           1                  |
 |                  96           68           12           1                  |
 |                  97           68           12           1                  |
 |                  98           68           12           1                  |
 |                  99           68           12           1                  |
 |                 100           68           12           1                  |
 |                 101           67           13           1                  |
 |                 102           68           12           1                  |
 |                 103           68           12           1                  |
 |                 104           68           12           1                  |
 |                 105           68           12           1                  |
 |                 106           68           13           1                  |
 |                 107           68           12           1                  |
 |                 108           68           12           1                  |
 |                 109           68           12           1                  |
 |                 110           68           12           1                  |
 |                 111           68           12           1                  |
 |                 112           68           12           1                  |
 |                 113           68           12           1                  |
 |                 114           68           12           1                  |
 |                 115           68           12           1                  |
 |                 116           68           12           1                  |
 |                 117           68           12           1                  |
 |                 118           68           12           1                  |
 |                 119           68           12           1                  |
 |                 120           68           12           1                  |
 |                 121           68           13           1                  |
 |                 122           68           12           1                  |
 |                 123           68           12           1                  |
 |                 124           68           12           1                  |
 |                 125           68           12           1                  |
 +----------------------------------------------------------------------------+

                   Unitarised projection of Wannier functions                  
                   ------------------------------------------                  
   A_mn = <psi_m|g_n> --> S = A.A^+ --> U = S^-1/2.A
   In dis_project... done
   Using an inner window (linner = T)
   In dis_proj_froz... done

                   Extraction of optimally-connected subspace                  
                   ------------------------------------------                  
 +---------------------------------------------------------------------+<-- DIS
 |  Iter     Omega_I(i-1)      Omega_I(i)      Delta (frac.)    Time   |<-- DIS
 +---------------------------------------------------------------------+<-- DIS
       1     188.47546973     179.45519867       5.026E-02      0.00    <-- DIS
       2     178.45292609     162.42049906       9.871E-02      0.04    <-- DIS
       3     169.27311324     156.40421205       8.228E-02      0.08    <-- DIS
       4     162.21039816     152.43806839       6.411E-02      0.12    <-- DIS
       5     156.75713831     150.05692160       4.465E-02      0.16    <-- DIS
       6     153.13554142     148.27960516       3.275E-02      0.21    <-- DIS
       7     150.48814251     146.81115954       2.505E-02      0.25    <-- DIS
       8     148.49031421     145.54665741       2.022E-02      0.29    <-- DIS
       9     146.93100249     144.54072685       1.654E-02      0.33    <-- DIS
      10     145.59893514     143.64099578       1.363E-02      0.38    <-- DIS
      11     144.49167397     142.84000112       1.156E-02      0.42    <-- DIS
      12     143.54964935     142.11845586       1.007E-02      0.46    <-- DIS
      13     142.71666620     141.44116572       9.018E-03      0.51    <-- DIS
      14     141.96769765     140.79686267       8.316E-03      0.55    <-- DIS
      15     141.27360962     140.17701222       7.823E-03      0.60    <-- DIS
      16     140.61788888     139.57338499       7.484E-03      0.64    <-- DIS
      17     139.98924013     138.97757437       7.279E-03      0.68    <-- DIS
      18     139.37806135     138.38241215       7.195E-03      0.72    <-- DIS
      19     138.77583076     137.78374268       7.200E-03      0.76    <-- DIS
      20     138.17627800     137.18100040       7.255E-03      0.81    <-- DIS
      21     137.57611645     136.57634890       7.320E-03      0.85    <-- DIS
      22     136.97482357     135.97337878       7.365E-03      0.89    <-- DIS
      23     136.37396015     135.37656924       7.368E-03      0.94    <-- DIS
      24     135.77671000     134.79144444       7.310E-03      0.98    <-- DIS
      25     135.18767127     134.22413855       7.179E-03      1.02    <-- DIS
      26     134.61233806     133.68020515       6.973E-03      1.06    <-- DIS
      27     134.05618681     133.16380110       6.701E-03      1.11    <-- DIS
      28     133.52387976     132.67755348       6.379E-03      1.15    <-- DIS
      29     133.01887127     132.22269914       6.021E-03      1.19    <-- DIS
      30     132.54331949     131.79920440       5.646E-03      1.24    <-- DIS
      31     132.09811067     131.40582261       5.268E-03      1.29    <-- DIS
      32     131.68291095     131.04027062       4.904E-03      1.33    <-- DIS
      33     131.29630867     130.69964980       4.565E-03      1.37    <-- DIS
      34     130.93611267     130.38095382       4.258E-03      1.42    <-- DIS
      35     130.59974200     130.08143233       3.985E-03      1.46    <-- DIS
      36     130.28457524     129.79874133       3.743E-03      1.50    <-- DIS
      37     129.98817820     129.53094454       3.530E-03      1.55    <-- DIS
      38     129.70840777     129.27645123       3.341E-03      1.59    <-- DIS
      39     129.44343006     129.03394413       3.173E-03      1.63    <-- DIS
      40     129.19169469     128.80231878       3.023E-03      1.67    <-- DIS
      41     128.95189346     128.58063748       2.887E-03      1.72    <-- DIS
      42     128.72291838     128.36809486       2.764E-03      1.76    <-- DIS
      43     128.50382461     128.16399158       2.652E-03      1.80    <-- DIS
      44     128.29379957     127.96771389       2.548E-03      1.84    <-- DIS
      45     128.09213781     127.77871773       2.453E-03      1.89    <-- DIS
      46     127.89822108     127.59651674       2.365E-03      1.93    <-- DIS
      47     127.71150264     127.42067320       2.282E-03      1.97    <-- DIS
      48     127.53149522     127.25079149       2.206E-03      2.02    <-- DIS
      49     127.35776193     127.08651309       2.134E-03      2.06    <-- DIS
      50     127.18990932     126.92751268       2.067E-03      2.10    <-- DIS
      51     127.02758200     126.77349478       2.004E-03      2.14    <-- DIS
      52     126.87045827     126.62419073       1.945E-03      2.18    <-- DIS
      53     126.71824641     126.47935583       1.889E-03      2.23    <-- DIS
      54     126.57068141     126.33876676       1.836E-03      2.27    <-- DIS
      55     126.42752201     126.20221924       1.785E-03      2.31    <-- DIS
      56     126.28854806     126.06952609       1.737E-03      2.35    <-- DIS
      57     126.15355828     125.94051556       1.692E-03      2.40    <-- DIS
      58     126.02236828     125.81503002       1.648E-03      2.44    <-- DIS
      59     125.89480899     125.69292489       1.606E-03      2.48    <-- DIS
      60     125.77072530     125.57406766       1.566E-03      2.53    <-- DIS
      61     125.64997496     125.45833701       1.528E-03      2.57    <-- DIS
      62     125.53242755     125.34562185       1.490E-03      2.61    <-- DIS
      63     125.41796352     125.23582030       1.454E-03      2.65    <-- DIS
      64     125.30647321     125.12883854       1.420E-03      2.70    <-- DIS
      65     125.19785577     125.02458956       1.386E-03      2.74    <-- DIS
      66     125.09201797     124.92299181       1.353E-03      2.78    <-- DIS
      67     124.98887305     124.82396783       1.321E-03      2.83    <-- DIS
      68     124.88833936     124.72744295       1.290E-03      2.87    <-- DIS
      69     124.79033911     124.63334401       1.260E-03      2.91    <-- DIS
      70     124.69479710     124.54159830       1.230E-03      2.95    <-- DIS
      71     124.60163964     124.45213267       1.201E-03      2.99    <-- DIS
      72     124.51079347     124.36487285       1.173E-03      3.04    <-- DIS
      73     124.42218502     124.27974298       1.146E-03      3.08    <-- DIS
      74     124.33573979     124.19666547       1.120E-03      3.12    <-- DIS
      75     124.25138195     124.11556092       1.094E-03      3.16    <-- DIS
      76     124.16903415     124.03634836       1.070E-03      3.21    <-- DIS
      77     124.08861756     123.95894548       1.046E-03      3.25    <-- DIS
      78     124.01005198     123.88326915       1.023E-03      3.29    <-- DIS
      79     123.93325619     123.80923577       1.002E-03      3.33    <-- DIS
      80     123.85814827     123.73676188       9.810E-04      3.38    <-- DIS
      81     123.78464608     123.66576461       9.613E-04      3.43    <-- DIS
      82     123.71266770     123.59616216       9.426E-04      3.47    <-- DIS
      83     123.64213192     123.52787428       9.250E-04      3.51    <-- DIS
      84     123.57295865     123.46082261       9.083E-04      3.55    <-- DIS
      85     123.50506935     123.39493104       8.926E-04      3.59    <-- DIS
      86     123.43838742     123.33012600       8.778E-04      3.63    <-- DIS
      87     123.37283846     123.26633666       8.640E-04      3.68    <-- DIS
      88     123.30835055     123.20349510       8.511E-04      3.72    <-- DIS
      89     123.24485449     123.14153640       8.390E-04      3.76    <-- DIS
      90     123.18228390     123.08039877       8.278E-04      3.81    <-- DIS
      91     123.12057536     123.02002354       8.174E-04      3.85    <-- DIS
      92     123.05966850     122.96035518       8.077E-04      3.89    <-- DIS
      93     122.99950598     122.90134128       7.987E-04      3.94    <-- DIS
      94     122.94003357     122.84293250       7.904E-04      3.98    <-- DIS
      95     122.88120004     122.78508253       7.828E-04      4.02    <-- DIS
      96     122.82295723     122.72774800       7.758E-04      4.06    <-- DIS
      97     122.76525989     122.67088841       7.693E-04      4.11    <-- DIS
      98     122.70806568     122.61446604       7.634E-04      4.15    <-- DIS
      99     122.65133508     122.55844588       7.579E-04      4.20    <-- DIS
     100     122.59503128     122.50279549       7.529E-04      4.24    <-- DIS
     101     122.53912014     122.44748493       7.484E-04      4.28    <-- DIS
     102     122.48357006     122.39248670       7.442E-04      4.32    <-- DIS
     103     122.42835188     122.33777554       7.404E-04      4.36    <-- DIS
     104     122.37343881     122.28332845       7.369E-04      4.41    <-- DIS
     105     122.31880635     122.22912451       7.337E-04      4.45    <-- DIS
     106     122.26443212     122.17514480       7.308E-04      4.49    <-- DIS
     107     122.21029586     122.12137232       7.282E-04      4.54    <-- DIS
     108     122.15637923     122.06779189       7.257E-04      4.58    <-- DIS
     109     122.10266582     122.01439004       7.235E-04      4.62    <-- DIS
     110     122.04914097     121.96115492       7.214E-04      4.66    <-- DIS
     111     121.99579170     121.90807618       7.195E-04      4.71    <-- DIS
     112     121.94260663     121.85514491       7.178E-04      4.75    <-- DIS
     113     121.88957586     121.80235347       7.161E-04      4.80    <-- DIS
     114     121.83669083     121.74969542       7.145E-04      4.84    <-- DIS
     115     121.78394429     121.69716541       7.131E-04      4.88    <-- DIS
     116     121.73133009     121.64475897       7.117E-04      4.93    <-- DIS
     117     121.67884310     121.59247247       7.103E-04      4.97    <-- DIS
     118     121.62647911     121.54030289       7.090E-04      5.01    <-- DIS
     119     121.57423460     121.48824775       7.078E-04      5.05    <-- DIS
     120     121.52210668     121.43630486       7.066E-04      5.10    <-- DIS
     121     121.47009290     121.38447225       7.054E-04      5.14    <-- DIS
     122     121.41819107     121.33274797       7.042E-04      5.18    <-- DIS
     123     121.36639917     121.28112993       7.031E-04      5.22    <-- DIS
     124     121.31471514     121.22961581       7.020E-04      5.27    <-- DIS
     125     121.26313679     121.17820288       7.009E-04      5.31    <-- DIS
     126     121.21166161     121.12688791       6.999E-04      5.35    <-- DIS
     127     121.16028670     121.07566708       6.989E-04      5.39    <-- DIS
     128     121.10900861     121.02453590       6.980E-04      5.44    <-- DIS
     129     121.05782334     120.97348915       6.971E-04      5.49    <-- DIS
     130     121.00672615     120.92252083       6.964E-04      5.53    <-- DIS
     131     120.95571162     120.87162415       6.957E-04      5.57    <-- DIS
     132     120.90477353     120.82079150       6.951E-04      5.62    <-- DIS
     133     120.85390490     120.77001450       6.946E-04      5.66    <-- DIS
     134     120.80309794     120.71928397       6.943E-04      5.70    <-- DIS
     135     120.75234407     120.66858999       6.941E-04      5.74    <-- DIS
     136     120.70163397     120.61792192       6.940E-04      5.78    <-- DIS
     137     120.65095757     120.56726846       6.941E-04      5.83    <-- DIS
     138     120.60030410     120.51661770       6.944E-04      5.87    <-- DIS
     139     120.54966217     120.46595716       6.948E-04      5.91    <-- DIS
     140     120.49901976     120.41527387       6.955E-04      5.95    <-- DIS
     141     120.44836431     120.36455440       6.963E-04      6.00    <-- DIS
     142     120.39768281     120.31378497       6.973E-04      6.04    <-- DIS
     143     120.34696179     120.26295148       6.986E-04      6.08    <-- DIS
     144     120.29618744     120.21203957       7.000E-04      6.12    <-- DIS
     145     120.24534566     120.16103473       7.016E-04      6.17    <-- DIS
     146     120.19442210     120.10992229       7.035E-04      6.21    <-- DIS
     147     120.14340227     120.05868754       7.056E-04      6.26    <-- DIS
     148     120.09227153     120.00731575       7.079E-04      6.30    <-- DIS
     149     120.04101524     119.95579226       7.105E-04      6.35    <-- DIS
     150     119.98961873     119.90410250       7.132E-04      6.39    <-- DIS
     151     119.93806740     119.85223202       7.162E-04      6.43    <-- DIS
     152     119.88634676     119.80016657       7.194E-04      6.48    <-- DIS
     153     119.83444245     119.74789212       7.228E-04      6.53    <-- DIS
     154     119.78234031     119.69539485       7.264E-04      6.58    <-- DIS
     155     119.73002638     119.64266122       7.302E-04      6.62    <-- DIS
     156     119.67748696     119.58967794       7.343E-04      6.67    <-- DIS
     157     119.62470855     119.53643195       7.385E-04      6.72    <-- DIS
     158     119.57167796     119.48291048       7.429E-04      6.76    <-- DIS
     159     119.51838219     119.42910096       7.476E-04      6.81    <-- DIS
     160     119.46480850     119.37499099       7.524E-04      6.85    <-- DIS
     161     119.41094435     119.32056833       7.574E-04      6.90    <-- DIS
     162     119.35677735     119.26582082       7.626E-04      6.95    <-- DIS
     163     119.30229524     119.21073629       7.680E-04      6.99    <-- DIS
     164     119.24748579     119.15530251       7.736E-04      7.03    <-- DIS
     165     119.19233675     119.09950706       7.794E-04      7.08    <-- DIS
     166     119.13683579     119.04333728       7.854E-04      7.12    <-- DIS
     167     119.08097032     118.98678011       7.916E-04      7.17    <-- DIS
     168     119.02472750     118.92982200       7.980E-04      7.21    <-- DIS
     169     118.96809404     118.87244882       8.046E-04      7.26    <-- DIS
     170     118.91105616     118.81464575       8.114E-04      7.30    <-- DIS
     171     118.85359946     118.75639719       8.185E-04      7.34    <-- DIS
     172     118.79570885     118.69768675       8.258E-04      7.39    <-- DIS
     173     118.73736848     118.63849721       8.334E-04      7.43    <-- DIS
     174     118.67856172     118.57881060       8.412E-04      7.48    <-- DIS
     175     118.61927120     118.51860830       8.493E-04      7.52    <-- DIS
     176     118.55947885     118.45787124       8.578E-04      7.57    <-- DIS
     177     118.49916608     118.39658015       8.665E-04      7.62    <-- DIS
     178     118.43831400     118.33471595       8.755E-04      7.66    <-- DIS
     179     118.37690365     118.27226005       8.848E-04      7.70    <-- DIS
     180     118.31491640     118.20919477       8.944E-04      7.75    <-- DIS
     181     118.25233421     118.14550365       9.042E-04      7.79    <-- DIS
     182     118.18914004     118.08117158       9.144E-04      7.83    <-- DIS
     183     118.12531795     118.01618470       9.247E-04      7.88    <-- DIS
     184     118.06085317     117.95053002       9.353E-04      7.92    <-- DIS
     185     117.99573183     117.88419455       9.462E-04      7.97    <-- DIS
     186     117.92994036     117.81716408       9.572E-04      8.01    <-- DIS
     187     117.86346453     117.74942145       9.685E-04      8.06    <-- DIS
     188     117.79628804     117.68094466       9.801E-04      8.11    <-- DIS
     189     117.72839085     117.61170470       9.921E-04      8.15    <-- DIS
     190     117.65974733     117.54166360       1.005E-03      8.19    <-- DIS
     191     117.59032432     117.47077301       1.018E-03      8.23    <-- DIS
     192     117.52007964     117.39897364       1.032E-03      8.28    <-- DIS
     193     117.44896122     117.32619634       1.046E-03      8.33    <-- DIS
     194     117.37690742     117.25236516       1.062E-03      8.37    <-- DIS
     195     117.30384912     117.17740297       1.079E-03      8.41    <-- DIS
     196     117.22971379     117.10123962       1.097E-03      8.46    <-- DIS
     197     117.15443198     117.02382197       1.116E-03      8.50    <-- DIS
     198     117.07794558     116.94512411       1.136E-03      8.54    <-- DIS
     199     117.00021692     116.86515561       1.156E-03      8.59    <-- DIS
     200     116.92123687     116.78396521       1.175E-03      8.63    <-- DIS
     201     116.84103006     116.70163886       1.194E-03      8.68    <-- DIS
     202     116.75965576     116.61829255       1.212E-03      8.72    <-- DIS
     203     116.67720428     116.53406197       1.228E-03      8.76    <-- DIS
     204     116.59378986     116.44909167       1.243E-03      8.81    <-- DIS
     205     116.50954184     116.36352578       1.255E-03      8.86    <-- DIS
     206     116.42459593     116.27750116       1.265E-03      8.90    <-- DIS
     207     116.33908683     116.19114343       1.273E-03      8.95    <-- DIS
     208     116.25314283     116.10456531       1.280E-03      8.99    <-- DIS
     209     116.16688259     116.01786695       1.284E-03      9.04    <-- DIS
     210     116.08041395     115.93113755       1.288E-03      9.08    <-- DIS
     211     115.99383412     115.84445759       1.289E-03      9.12    <-- DIS
     212     115.90723107     115.75790133       1.290E-03      9.17    <-- DIS
     213     115.82068534     115.67153901       1.289E-03      9.21    <-- DIS
     214     115.73427206     115.58543873       1.288E-03      9.26    <-- DIS
     215     115.64806279     115.49966778       1.285E-03      9.30    <-- DIS
     216     115.56212708     115.41429357       1.281E-03      9.34    <-- DIS
     217     115.47653358     115.32938404       1.276E-03      9.39    <-- DIS
     218     115.39135084     115.24500778       1.270E-03      9.44    <-- DIS
     219     115.30664766     115.16123387       1.263E-03      9.48    <-- DIS
     220     115.22249316     115.07813143       1.254E-03      9.53    <-- DIS
     221     115.13895658     114.99576907       1.245E-03      9.58    <-- DIS
     222     115.05610689     114.91421427       1.235E-03      9.62    <-- DIS
     223     114.97401230     114.83353270       1.223E-03      9.67    <-- DIS
     224     114.89273960     114.75378752       1.211E-03      9.72    <-- DIS
     225     114.81235353     114.67503876       1.197E-03      9.77    <-- DIS
     226     114.73291620     114.59734273       1.183E-03      9.81    <-- DIS
     227     114.65448643     114.52075159       1.168E-03      9.86    <-- DIS
     228     114.57711928     114.44531292       1.152E-03      9.91    <-- DIS
     229     114.50086556     114.37106947       1.135E-03      9.95    <-- DIS
     230     114.42577155     114.29805899       1.117E-03     10.00    <-- DIS
     231     114.35187866     114.22631412       1.099E-03     10.05    <-- DIS
     232     114.27922337     114.15586243       1.081E-03     10.09    <-- DIS
     233     114.20783712     114.08672652       1.062E-03     10.14    <-- DIS
     234     114.13774634     114.01892414       1.042E-03     10.19    <-- DIS
     235     114.06897255     113.95246843       1.022E-03     10.23    <-- DIS
     236     114.00153252     113.88736814       1.002E-03     10.28    <-- DIS
     237     113.93543850     113.82362795       9.823E-04     10.32    <-- DIS
     238     113.87069841     113.76124871       9.621E-04     10.37    <-- DIS
     239     113.80731621     113.70022782       9.418E-04     10.41    <-- DIS
     240     113.74529209     113.64055949       9.216E-04     10.46    <-- DIS
     241     113.68462288     113.58223507       9.014E-04     10.51    <-- DIS
     242     113.62530227     113.52524336       8.814E-04     10.55    <-- DIS
     243     113.56732117     113.46957088       8.615E-04     10.60    <-- DIS
     244     113.51066800     113.41520218       8.417E-04     10.64    <-- DIS
     245     113.45532895     113.36212007       8.222E-04     10.69    <-- DIS
     246     113.40128830     113.31030588       8.029E-04     10.73    <-- DIS
     247     113.34852862     113.25973968       7.839E-04     10.78    <-- DIS
     248     113.29703105     113.21040048       7.652E-04     10.83    <-- DIS
     249     113.24677552     113.16226644       7.468E-04     10.87    <-- DIS
     250     113.19774091     113.11531500       7.287E-04     10.92    <-- DIS
     251     113.14990530     113.06952308       7.109E-04     10.96    <-- DIS
     252     113.10324608     113.02486719       6.935E-04     11.01    <-- DIS
     253     113.05774013     112.98132357       6.764E-04     11.05    <-- DIS
     254     113.01336395     112.93886826       6.596E-04     11.10    <-- DIS
     255     112.97009377     112.89747727       6.432E-04     11.15    <-- DIS
     256     112.92790569     112.85712657       6.272E-04     11.19    <-- DIS
     257     112.88677571     112.81779223       6.115E-04     11.23    <-- DIS
     258     112.84667988     112.77945048       5.961E-04     11.28    <-- DIS
     259     112.80759433     112.74207773       5.811E-04     11.32    <-- DIS
     260     112.76949535     112.70565063       5.665E-04     11.37    <-- DIS
     261     112.73235943     112.67014613       5.522E-04     11.41    <-- DIS
     262     112.69616332     112.63554149       5.382E-04     11.46    <-- DIS
     263     112.66088405     112.60181432       5.246E-04     11.50    <-- DIS
     264     112.62649898     112.56894258       5.113E-04     11.55    <-- DIS
     265     112.59298580     112.53690462       4.983E-04     11.60    <-- DIS
     266     112.56032260     112.50567922       4.857E-04     11.64    <-- DIS
     267     112.52848783     112.47524551       4.734E-04     11.69    <-- DIS
     268     112.49746035     112.44558310       4.614E-04     11.74    <-- DIS
     269     112.46721943     112.41667197       4.496E-04     11.78    <-- DIS
     270     112.43774477     112.38849255       4.382E-04     11.83    <-- DIS
     271     112.40901646     112.36102570       4.271E-04     11.88    <-- DIS
     272     112.38101505     112.33425269       4.163E-04     11.92    <-- DIS
     273     112.35372149     112.30815522       4.057E-04     11.96    <-- DIS
     274     112.32711717     112.28271542       3.954E-04     12.01    <-- DIS
     275     112.30118389     112.25791581       3.854E-04     12.06    <-- DIS
     276     112.27590388     112.23373936       3.757E-04     12.10    <-- DIS
     277     112.25125978     112.21016941       3.662E-04     12.14    <-- DIS
     278     112.22723465     112.18718972       3.569E-04     12.19    <-- DIS
     279     112.20381193     112.16478442       3.479E-04     12.24    <-- DIS
     280     112.18097547     112.14293807       3.392E-04     12.28    <-- DIS
     281     112.15870953     112.12163556       3.307E-04     12.32    <-- DIS
     282     112.13699873     112.10086218       3.224E-04     12.37    <-- DIS
     283     112.11582808     112.08060358       3.143E-04     12.42    <-- DIS
     284     112.09518295     112.06084577       3.064E-04     12.46    <-- DIS
     285     112.07504908     112.04157509       2.988E-04     12.50    <-- DIS
     286     112.05541255     112.02277824       2.913E-04     12.55    <-- DIS
     287     112.03625982     112.00444225       2.841E-04     12.59    <-- DIS
     288     112.01757766     111.98655447       2.770E-04     12.63    <-- DIS
     289     111.99935318     111.96910259       2.702E-04     12.67    <-- DIS
     290     111.98157382     111.95207457       2.635E-04     12.72    <-- DIS
     291     111.96422732     111.93545872       2.570E-04     12.76    <-- DIS
     292     111.94730176     111.91924362       2.507E-04     12.81    <-- DIS
     293     111.93078549     111.90341814       2.446E-04     12.85    <-- DIS
     294     111.91466718     111.88797145       2.386E-04     12.89    <-- DIS
     295     111.89893577     111.87289298       2.328E-04     12.94    <-- DIS
     296     111.88358049     111.85817244       2.271E-04     12.98    <-- DIS
     297     111.86859085     111.84379979       2.217E-04     13.03    <-- DIS
     298     111.85395662     111.82976527       2.163E-04     13.07    <-- DIS
     299     111.83966782     111.81605934       2.111E-04     13.12    <-- DIS
     300     111.82571476     111.80267272       2.061E-04     13.16    <-- DIS
     301     111.81208796     111.78959638       2.012E-04     13.21    <-- DIS
     302     111.79877821     111.77682150       1.964E-04     13.25    <-- DIS
     303     111.78577652     111.76433951       1.918E-04     13.30    <-- DIS
     304     111.77307413     111.75214203       1.873E-04     13.34    <-- DIS
     305     111.76066253     111.74022093       1.829E-04     13.38    <-- DIS
     306     111.74853340     111.72856826       1.787E-04     13.43    <-- DIS
     307     111.73667865     111.71717630       1.746E-04     13.48    <-- DIS
     308     111.72509038     111.70603752       1.706E-04     13.53    <-- DIS
     309     111.71376093     111.69514456       1.667E-04     13.57    <-- DIS
     310     111.70268281     111.68449030       1.629E-04     13.62    <-- DIS
     311     111.69184872     111.67406776       1.592E-04     13.67    <-- DIS
     312     111.68125156     111.66387016       1.557E-04     13.71    <-- DIS
     313     111.67088442     111.65389090       1.522E-04     13.76    <-- DIS
     314     111.66074055     111.64412353       1.488E-04     13.80    <-- DIS
     315     111.65081339     111.63456179       1.456E-04     13.85    <-- DIS
     316     111.64109654     111.62519957       1.424E-04     13.90    <-- DIS
     317     111.63158377     111.61603092       1.393E-04     13.94    <-- DIS
     318     111.62226901     111.60705003       1.364E-04     13.99    <-- DIS
     319     111.61314635     111.59825127       1.335E-04     14.03    <-- DIS
     320     111.60421002     111.58962912       1.307E-04     14.08    <-- DIS
     321     111.59545441     111.58117824       1.279E-04     14.13    <-- DIS
     322     111.58687406     111.57289339       1.253E-04     14.17    <-- DIS
     323     111.57846363     111.56476949       1.227E-04     14.22    <-- DIS
     324     111.57021793     111.55680157       1.203E-04     14.26    <-- DIS
     325     111.56213191     111.54898480       1.179E-04     14.31    <-- DIS
     326     111.55420063     111.54131448       1.155E-04     14.35    <-- DIS
     327     111.54641929     111.53378601       1.133E-04     14.40    <-- DIS
     328     111.53878322     111.52639491       1.111E-04     14.45    <-- DIS
     329     111.53128783     111.51913683       1.090E-04     14.50    <-- DIS
     330     111.52392870     111.51200752       1.069E-04     14.54    <-- DIS
     331     111.51670148     111.50500282       1.049E-04     14.59    <-- DIS
     332     111.50960193     111.49811870       1.030E-04     14.63    <-- DIS
     333     111.50262596     111.49135121       1.011E-04     14.68    <-- DIS
     334     111.49576952     111.48469650       9.932E-05     14.72    <-- DIS
     335     111.48902870     111.47815082       9.758E-05     14.77    <-- DIS
     336     111.48239968     111.47171052       9.589E-05     14.82    <-- DIS
     337     111.47587872     111.46537202       9.426E-05     14.86    <-- DIS
     338     111.46946219     111.45913184       9.268E-05     14.91    <-- DIS
     339     111.46314653     111.45298656       9.116E-05     14.96    <-- DIS
     340     111.45692827     111.44693287       8.969E-05     15.00    <-- DIS
     341     111.45080403     111.44096753       8.827E-05     15.05    <-- DIS
     342     111.44477051     111.43508736       8.689E-05     15.10    <-- DIS
     343     111.43882447     111.42928926       8.557E-05     15.14    <-- DIS
     344     111.43296276     111.42357021       8.430E-05     15.19    <-- DIS
     345     111.42718231     111.41792726       8.307E-05     15.24    <-- DIS
     346     111.42148009     111.41235750       8.188E-05     15.28    <-- DIS
     347     111.41585316     111.40685811       8.074E-05     15.33    <-- DIS
     348     111.41029865     111.40142632       7.964E-05     15.37    <-- DIS
     349     111.40481374     111.39605943       7.859E-05     15.42    <-- DIS
     350     111.39939568     111.39075477       7.757E-05     15.46    <-- DIS
     351     111.39404176     111.38550976       7.660E-05     15.51    <-- DIS
     352     111.38874935     111.38032185       7.566E-05     15.55    <-- DIS
     353     111.38351587     111.37518855       7.477E-05     15.59    <-- DIS
     354     111.37833877     111.37010742       7.391E-05     15.63    <-- DIS
     355     111.37321559     111.36507605       7.309E-05     15.67    <-- DIS
     356     111.36814388     111.36009211       7.230E-05     15.72    <-- DIS
     357     111.36312127     111.35515329       7.155E-05     15.76    <-- DIS
     358     111.35814540     111.35025732       7.084E-05     15.81    <-- DIS
     359     111.35321399     111.34540198       7.016E-05     15.85    <-- DIS
     360     111.34832478     111.34058509       6.951E-05     15.89    <-- DIS
     361     111.34347555     111.33580449       6.890E-05     15.93    <-- DIS
     362     111.33866413     111.33105809       6.832E-05     15.98    <-- DIS
     363     111.33388838     111.32634379       6.777E-05     16.02    <-- DIS
     364     111.32914618     111.32165957       6.725E-05     16.06    <-- DIS
     365     111.32443549     111.31700340       6.677E-05     16.10    <-- DIS
     366     111.31975425     111.31237330       6.631E-05     16.14    <-- DIS
     367     111.31510045     111.30776732       6.588E-05     16.19    <-- DIS
     368     111.31047213     111.30318354       6.548E-05     16.23    <-- DIS
     369     111.30586733     111.29862005       6.512E-05     16.27    <-- DIS
     370     111.30128414     111.29407498       6.478E-05     16.32    <-- DIS
     371     111.29672064     111.28954647       6.446E-05     16.36    <-- DIS
     372     111.29217499     111.28503270       6.418E-05     16.40    <-- DIS
     373     111.28764532     111.28053186       6.392E-05     16.44    <-- DIS
     374     111.28312981     111.27604216       6.369E-05     16.48    <-- DIS
     375     111.27862666     111.27156183       6.349E-05     16.53    <-- DIS
     376     111.27413408     111.26708912       6.332E-05     16.57    <-- DIS
     377     111.26965031     111.26262231       6.317E-05     16.61    <-- DIS
     378     111.26517360     111.25815966       6.304E-05     16.66    <-- DIS
     379     111.26070222     111.25369949       6.294E-05     16.70    <-- DIS
     380     111.25623445     111.24924010       6.287E-05     16.74    <-- DIS
     381     111.25176860     111.24477983       6.282E-05     16.78    <-- DIS
     382     111.24730298     111.24031700       6.280E-05     16.82    <-- DIS
     383     111.24283592     111.23584997       6.280E-05     16.87    <-- DIS
     384     111.23836576     111.23137711       6.283E-05     16.91    <-- DIS
     385     111.23389085     111.22689679       6.288E-05     16.95    <-- DIS
     386     111.22940956     111.22240738       6.296E-05     17.00    <-- DIS
     387     111.22492026     111.21790729       6.306E-05     17.04    <-- DIS
     388     111.22042133     111.21339490       6.318E-05     17.08    <-- DIS
     389     111.21591117     111.20886864       6.333E-05     17.12    <-- DIS
     390     111.21138818     111.20432691       6.350E-05     17.16    <-- DIS
     391     111.20685077     111.19976814       6.369E-05     17.21    <-- DIS
     392     111.20229735     111.19519075       6.391E-05     17.25    <-- DIS
     393     111.19772635     111.19059318       6.415E-05     17.30    <-- DIS
     394     111.19313619     111.18597388       6.442E-05     17.34    <-- DIS
     395     111.18852532     111.18133128       6.471E-05     17.38    <-- DIS
     396     111.18389216     111.17666383       6.502E-05     17.42    <-- DIS
     397     111.17923517     111.17196999       6.535E-05     17.47    <-- DIS
     398     111.17455280     111.16724822       6.571E-05     17.51    <-- DIS
     399     111.16984350     111.16249697       6.609E-05     17.55    <-- DIS
     400     111.16510573     111.15771472       6.649E-05     17.60    <-- DIS
     401     111.16033795     111.15289993       6.692E-05     17.64    <-- DIS
     402     111.15553863     111.14805107       6.737E-05     17.68    <-- DIS
     403     111.15070624     111.14316662       6.784E-05     17.72    <-- DIS
     404     111.14583925     111.13824506       6.833E-05     17.76    <-- DIS
     405     111.14093613     111.13328487       6.885E-05     17.81    <-- DIS
     406     111.13599537     111.12828454       6.939E-05     17.85    <-- DIS
     407     111.13101545     111.12324254       6.995E-05     17.89    <-- DIS
     408     111.12599485     111.11815738       7.053E-05     17.93    <-- DIS
     409     111.12093207     111.11302755       7.114E-05     17.98    <-- DIS
     410     111.11582559     111.10785154       7.177E-05     18.02    <-- DIS
     411     111.11067392     111.10262787       7.242E-05     18.07    <-- DIS
     412     111.10547555     111.09735503       7.309E-05     18.11    <-- DIS
     413     111.10022899     111.09203154       7.379E-05     18.15    <-- DIS
     414     111.09493275     111.08665591       7.451E-05     18.19    <-- DIS
     415     111.08958534     111.08122667       7.525E-05     18.23    <-- DIS
     416     111.08418528     111.07574234       7.601E-05     18.27    <-- DIS
     417     111.07873109     111.07020146       7.679E-05     18.32    <-- DIS
     418     111.07322132     111.06460257       7.760E-05     18.36    <-- DIS
     419     111.06765448     111.05894422       7.843E-05     18.40    <-- DIS
[...]
  WF centre and spread   14  (  2.799819,  2.798827,  3.846749 )     1.37095898
  WF centre and spread   15  (  2.470290,  5.201322,  4.997659 )    22.01284326
  WF centre and spread   16  (  2.809263,  2.809808, -0.025810 )    11.31267136
  WF centre and spread   17  (  2.800763,  2.799168,  0.000991 )     1.38162276
  WF centre and spread   18  (  2.800009,  2.800605,  0.006313 )     1.42609700
  WF centre and spread   19  (  2.800100,  2.803385,  0.000084 )     1.36635315
  WF centre and spread   20  (  2.624371,  2.869764,  0.076178 )     8.12538087
  WF centre and spread   21  (  1.404635,  4.200605,  0.059015 )     1.08215484
  WF centre and spread   22  (  1.309473,  4.246261,  0.000346 )     1.41481058
  WF centre and spread   23  (  1.340926,  4.251131,  0.007331 )     1.40826713
  WF centre and spread   24  (  1.399830,  1.400327,  0.016629 )     0.98319775
  WF centre and spread   25  (  1.345033,  1.352845,  0.008314 )     1.35478494
  WF centre and spread   26  (  1.343051,  1.357007,  0.000802 )     1.33966610
  WF centre and spread   27  (  4.200928,  1.399050,  3.839865 )     0.97162044
  WF centre and spread   28  (  4.128062,  1.465848,  3.846834 )     1.40536042
  WF centre and spread   29  (  4.136684,  1.476569,  3.850322 )     1.38771728
  WF centre and spread   30  (  4.200559,  4.201659,  3.831991 )     0.97572029
  WF centre and spread   31  (  4.141776,  4.148103,  3.848994 )     1.34082140
  WF centre and spread   32  (  4.147712,  4.141363,  3.844896 )     1.36399078
  WF centre and spread   33  (  4.200213,  1.400382,  0.016122 )     0.97977102
  WF centre and spread   34  (  4.252823,  1.353348,  0.003071 )     1.29743303
  WF centre and spread   35  (  4.251614,  1.352942, -0.002069 )     1.29887564
  WF centre and spread   36  (  4.196287,  4.201045,  0.057185 )     1.06534945
  WF centre and spread   37  (  4.284742,  4.249756, -0.002440 )     1.35776737
  WF centre and spread   38  (  4.258770,  4.245361,  0.000174 )     1.34544076
  WF centre and spread   39  (  1.399374,  4.201537,  3.832078 )     0.97600826
  WF centre and spread   40  (  1.455421,  4.148584,  3.848170 )     1.35938787
  WF centre and spread   41  (  1.451674,  4.140796,  3.846039 )     1.36806718
  WF centre and spread   42  (  1.398997,  1.399076,  3.839737 )     0.97365364
  WF centre and spread   43  (  1.468823,  1.464730,  3.842872 )     1.43309466
  WF centre and spread   44  (  1.458066,  1.477969,  3.848980 )     1.39522857
  WF centre and spread   45  ( -0.000334,  0.009371,  1.789368 )     1.69945442
  WF centre and spread   46  ( -0.001896,  0.000557,  1.925174 )     0.94242787
  WF centre and spread   47  ( -0.000006, -0.001457,  1.925293 )     0.92536031
  WF centre and spread   48  ( -0.000010,  0.004799,  5.905286 )     1.67285133
  WF centre and spread   49  ( -0.000023,  0.003110,  5.776718 )     0.94108406
  WF centre and spread   50  (  0.000092, -0.003834,  5.774405 )     0.91003625
  WF centre and spread   51  (  2.796284,  2.814035,  5.739130 )     1.77574627
  WF centre and spread   52  (  2.817543,  2.803582,  5.778561 )     0.95044167
  WF centre and spread   53  (  2.799210,  2.740188,  5.780465 )     1.02039944
  WF centre and spread   54  (  2.799868,  2.799712,  2.029599 )     1.65147403
  WF centre and spread   55  (  2.799802,  2.800012,  1.924443 )     0.92761340
  WF centre and spread   56  (  2.800038,  2.798948,  1.923891 )     0.94282896
  Sum of centres and spreads (105.526653,114.880772,130.850738 )   158.79503994

   4600    -0.958E-01    18.2716623894      158.7950399223     399.30  <-- CONV
        O_D=     10.0395109 O_OD=     41.0318181 O_TOT=    158.7950399 <-- SPRD
 Delta: O_D= -0.8757043E-01 O_OD= -0.8185828E-02 O_TOT= -0.9575626E-01 <-- DLTA
 ------------------------------------------------------------------------------
 Cycle:   4800
  WF centre and spread    1  ( -2.777962, -0.043630, -1.439810 )     7.19530173
  WF centre and spread    2  ( -0.000074,  0.002674,  0.007693 )     1.41073563
  WF centre and spread    3  (  0.000079,  0.001105,  0.007855 )     1.33674050
  WF centre and spread    4  (  0.000146,  0.001011,  0.001221 )     1.34214700
  WF centre and spread    5  ( -2.975393, -0.416181, -2.217280 )    21.24338741
  WF centre and spread    6  ( -0.005944,  0.195521,  3.708375 )     9.87925575
  WF centre and spread    7  ( -0.000033,  0.002314,  3.842260 )     1.41597298
  WF centre and spread    8  (  0.000082,  0.002887,  3.840923 )     1.35520102
  WF centre and spread    9  (  0.000052, -0.000911,  3.850305 )     1.38102502
  WF centre and spread   10  ( -0.001925,  0.071752,  3.845194 )     7.85871454
  WF centre and spread   11  (  2.603730,  3.320095,  6.255278 )    10.17898470
  WF centre and spread   12  (  2.800234,  2.799811,  3.844005 )     1.37119012
  WF centre and spread   13  (  2.800046,  2.801001,  3.841761 )     1.40148495
  WF centre and spread   14  (  2.799826,  2.798831,  3.846753 )     1.37099214
  WF centre and spread   15  (  2.486133,  5.189477,  5.007640 )    21.96371866
  WF centre and spread   16  (  2.808821,  2.809531, -0.057463 )    11.19972335
  WF centre and spread   17  (  2.800769,  2.799167,  0.000985 )     1.38172438
  WF centre and spread   18  (  2.800010,  2.800593,  0.006310 )     1.42623715
  WF centre and spread   19  (  2.800099,  2.803388,  0.000095 )     1.36615806
  WF centre and spread   20  (  2.635801,  2.870421,  0.070911 )     8.06117142
  WF centre and spread   21  (  1.404645,  4.200610,  0.059029 )     1.08234428
  WF centre and spread   22  (  1.309289,  4.246636,  0.000139 )     1.41244076
  WF centre and spread   23  (  1.340743,  4.251469,  0.007122 )     1.40443764
  WF centre and spread   24  (  1.399832,  1.400320,  0.016617 )     0.98310584
  WF centre and spread   25  (  1.344998,  1.352661,  0.008141 )     1.35202863
  WF centre and spread   26  (  1.343133,  1.356735,  0.000595 )     1.33476786
  WF centre and spread   27  (  4.200927,  1.399050,  3.839861 )     0.97159263
  WF centre and spread   28  (  4.128079,  1.465860,  3.846782 )     1.40631945
  WF centre and spread   29  (  4.136737,  1.476602,  3.850315 )     1.38844901
  WF centre and spread   30  (  4.200562,  4.201654,  3.832000 )     0.97555824
  WF centre and spread   31  (  4.141697,  4.148105,  3.849000 )     1.34111322
  WF centre and spread   32  (  4.147705,  4.141315,  3.844992 )     1.36366948
  WF centre and spread   33  (  4.200215,  1.400378,  0.016120 )     0.97975674
  WF centre and spread   34  (  4.253085,  1.353120,  0.003051 )     1.29587329
  WF centre and spread   35  (  4.251845,  1.352759, -0.002108 )     1.29525755
  WF centre and spread   36  (  4.196274,  4.201050,  0.057214 )     1.06561888
  WF centre and spread   37  (  4.285356,  4.250050, -0.002541 )     1.35735015
  WF centre and spread   38  (  4.259164,  4.245884,  0.000126 )     1.34198715
  WF centre and spread   39  (  1.399381,  4.201544,  3.832066 )     0.97600585
  WF centre and spread   40  (  1.455586,  4.148615,  3.848235 )     1.35778963
  WF centre and spread   41  (  1.451744,  4.140766,  3.846153 )     1.36672927
  WF centre and spread   42  (  1.399000,  1.399075,  3.839745 )     0.97354398
  WF centre and spread   43  (  1.468987,  1.464775,  3.843008 )     1.43269992
  WF centre and spread   44  (  1.458249,  1.477953,  3.849020 )     1.39557526
  WF centre and spread   45  ( -0.000329,  0.009271,  1.789410 )     1.69832856
  WF centre and spread   46  ( -0.001821,  0.000554,  1.925177 )     0.94239539
  WF centre and spread   47  ( -0.000006, -0.001440,  1.925294 )     0.92531336
  WF centre and spread   48  ( -0.000002,  0.004759,  5.905582 )     1.67242208
  WF centre and spread   49  ( -0.000034,  0.003105,  5.776722 )     0.94118773
  WF centre and spread   50  (  0.000091, -0.003845,  5.774402 )     0.90997104
  WF centre and spread   51  (  2.796605,  2.813526,  5.738279 )     1.72090784
  WF centre and spread   52  (  2.817887,  2.803601,  5.778589 )     0.95041060
  WF centre and spread   53  (  2.799271,  2.739521,  5.780510 )     1.02216151
  WF centre and spread   54  (  2.799880,  2.799770,  2.027417 )     1.60067350
  WF centre and spread   55  (  2.799821,  2.800012,  1.924443 )     0.92765852
  WF centre and spread   56  (  2.800039,  2.798912,  1.923889 )     0.94286475
  Sum of centres and spreads (105.563133,114.853587,130.817407 )   158.24817611

   4800    -0.554E-03     1.4516340072      158.2481760858     412.35  <-- CONV
        O_D=      9.7629143 O_OD=     40.7615510 O_TOT=    158.2481761 <-- SPRD
 Delta: O_D= -0.5248135E-04 O_OD= -0.5014604E-03 O_TOT= -0.5539418E-03 <-- DLTA
 ------------------------------------------------------------------------------
 Cycle:   5000
  WF centre and spread    1  ( -2.778009, -0.043239, -1.440172 )     7.17467461
  WF centre and spread    2  ( -0.000076,  0.002673,  0.007688 )     1.41078052
  WF centre and spread    3  (  0.000077,  0.001096,  0.007856 )     1.33678983
  WF centre and spread    4  (  0.000142,  0.001016,  0.001241 )     1.34227272
  WF centre and spread    5  ( -2.981997, -0.414420, -2.217733 )    21.24576040
  WF centre and spread    6  ( -0.005927,  0.195999,  3.707527 )     9.89197872
  WF centre and spread    7  ( -0.000031,  0.002311,  3.842259 )     1.41599506
  WF centre and spread    8  (  0.000080,  0.002886,  3.840912 )     1.35526817
  WF centre and spread    9  (  0.000052, -0.000908,  3.850308 )     1.38101451
  WF centre and spread   10  ( -0.001858,  0.072011,  3.845450 )     7.85323379
  WF centre and spread   11  (  2.606905,  3.321211,  6.257041 )    10.16137003
  WF centre and spread   12  (  2.800232,  2.799809,  3.844007 )     1.37120964
  WF centre and spread   13  (  2.800048,  2.801000,  3.841770 )     1.40152533
  WF centre and spread   14  (  2.799832,  2.798834,  3.846755 )     1.37099633
  WF centre and spread   15  (  2.482849,  5.188621,  5.013158 )    22.01261593
  WF centre and spread   16  (  2.808812,  2.809219, -0.059361 )    11.19974625
  WF centre and spread   17  (  2.800776,  2.799166,  0.000981 )     1.38175018
  WF centre and spread   18  (  2.800010,  2.800584,  0.006308 )     1.42635856
  WF centre and spread   19  (  2.800099,  2.803388,  0.000107 )     1.36618414
  WF centre and spread   20  (  2.644665,  2.870807,  0.066778 )     8.00730939
  WF centre and spread   21  (  1.404654,  4.200616,  0.059042 )     1.08249723
  WF centre and spread   22  (  1.309120,  4.246935,  0.000016 )     1.41151323
  WF centre and spread   23  (  1.340561,  4.251726,  0.007008 )     1.40376035
  WF centre and spread   24  (  1.399834,  1.400314,  0.016608 )     0.98304045
  WF centre and spread   25  (  1.344962,  1.352536,  0.008029 )     1.35082500
  WF centre and spread   26  (  1.343211,  1.356538,  0.000473 )     1.33326124
  WF centre and spread   27  (  4.200926,  1.399050,  3.839859 )     0.97154931
  WF centre and spread   28  (  4.128044,  1.465888,  3.846771 )     1.40673252
  WF centre and spread   29  (  4.136719,  1.476657,  3.850318 )     1.38882874
  WF centre and spread   30  (  4.200566,  4.201650,  3.832010 )     0.97544293
  WF centre and spread   31  (  4.141645,  4.148109,  3.849023 )     1.34094349
  WF centre and spread   32  (  4.147685,  4.141273,  3.845083 )     1.36317186
  WF centre and spread   33  (  4.200216,  1.400376,  0.016118 )     0.97974335
  WF centre and spread   34  (  4.253288,  1.352970,  0.003070 )     1.29607172
  WF centre and spread   35  (  4.252016,  1.352646, -0.002093 )     1.29484871
  WF centre and spread   36  (  4.196262,  4.201053,  0.057238 )     1.06584233
  WF centre and spread   37  (  4.285864,  4.250258, -0.002587 )     1.35839190
  WF centre and spread   38  (  4.259489,  4.246283,  0.000146 )     1.34187319
  WF centre and spread   39  (  1.399386,  4.201550,  3.832059 )     0.97602865
  WF centre and spread   40  (  1.455769,  4.148637,  3.848308 )     1.35651381
  WF centre and spread   41  (  1.451837,  4.140714,  3.846261 )     1.36584046
  WF centre and spread   42  (  1.399002,  1.399074,  3.839749 )     0.97346048
  WF centre and spread   43  (  1.469100,  1.464812,  3.843122 )     1.43184959
  WF centre and spread   44  (  1.458405,  1.477947,  3.849056 )     1.39550922
  WF centre and spread   45  ( -0.000323,  0.009198,  1.789549 )     1.69816931
  WF centre and spread   46  ( -0.001758,  0.000552,  1.925181 )     0.94218533
  WF centre and spread   47  ( -0.000006, -0.001427,  1.925296 )     0.92525767
  WF centre and spread   48  ( -0.000002,  0.004735,  5.905853 )     1.67273290
  WF centre and spread   49  ( -0.000044,  0.003101,  5.776724 )     0.94124525
  WF centre and spread   50  (  0.000091, -0.003853,  5.774399 )     0.90990751
  WF centre and spread   51  (  2.796853,  2.813059,  5.737644 )     1.70365847
  WF centre and spread   52  (  2.818158,  2.803614,  5.778611 )     0.95040064
  WF centre and spread   53  (  2.799319,  2.738975,  5.780552 )     1.02354255
  WF centre and spread   54  (  2.799898,  2.799766,  2.027137 )     1.58919018
  WF centre and spread   55  (  2.799833,  2.800012,  1.924444 )     0.92769884
  WF centre and spread   56  (  2.800038,  2.798884,  1.923889 )     0.94283700
  Sum of centres and spreads (105.567302,114.856292,130.816846 )   158.18119956

   5000    -0.373E-03     0.9002218505      158.1811995352     425.39  <-- CONV
        O_D=      9.8162874 O_OD=     40.6412013 O_TOT=    158.1811995 <-- SPRD
 Delta: O_D=  0.4752174E-04 O_OD= -0.4201171E-03 O_TOT= -0.3725954E-03 <-- DLTA
 ------------------------------------------------------------------------------
 Final State
  WF centre and spread    1  ( -2.778009, -0.043239, -1.440172 )     7.17467461
  WF centre and spread    2  ( -0.000076,  0.002673,  0.007688 )     1.41078052
  WF centre and spread    3  (  0.000077,  0.001096,  0.007856 )     1.33678983
  WF centre and spread    4  (  0.000142,  0.001016,  0.001241 )     1.34227272
  WF centre and spread    5  ( -2.981997, -0.414420, -2.217733 )    21.24576040
  WF centre and spread    6  ( -0.005927,  0.195999,  3.707527 )     9.89197872
  WF centre and spread    7  ( -0.000031,  0.002311,  3.842259 )     1.41599506
  WF centre and spread    8  (  0.000080,  0.002886,  3.840912 )     1.35526817
  WF centre and spread    9  (  0.000052, -0.000908,  3.850308 )     1.38101451
  WF centre and spread   10  ( -0.001858,  0.072011,  3.845450 )     7.85323379
  WF centre and spread   11  (  2.606905,  3.321211,  6.257041 )    10.16137003
  WF centre and spread   12  (  2.800232,  2.799809,  3.844007 )     1.37120964
  WF centre and spread   13  (  2.800048,  2.801000,  3.841770 )     1.40152533
  WF centre and spread   14  (  2.799832,  2.798834,  3.846755 )     1.37099633
  WF centre and spread   15  (  2.482849,  5.188621,  5.013158 )    22.01261593
  WF centre and spread   16  (  2.808812,  2.809219, -0.059361 )    11.19974625
  WF centre and spread   17  (  2.800776,  2.799166,  0.000981 )     1.38175018
  WF centre and spread   18  (  2.800010,  2.800584,  0.006308 )     1.42635856
  WF centre and spread   19  (  2.800099,  2.803388,  0.000107 )     1.36618414
  WF centre and spread   20  (  2.644665,  2.870807,  0.066778 )     8.00730939
  WF centre and spread   21  (  1.404654,  4.200616,  0.059042 )     1.08249723
  WF centre and spread   22  (  1.309120,  4.246935,  0.000016 )     1.41151323
  WF centre and spread   23  (  1.340561,  4.251726,  0.007008 )     1.40376035
  WF centre and spread   24  (  1.399834,  1.400314,  0.016608 )     0.98304045
  WF centre and spread   25  (  1.344962,  1.352536,  0.008029 )     1.35082500
  WF centre and spread   26  (  1.343211,  1.356538,  0.000473 )     1.33326124
  WF centre and spread   27  (  4.200926,  1.399050,  3.839859 )     0.97154931
  WF centre and spread   28  (  4.128044,  1.465888,  3.846771 )     1.40673252
  WF centre and spread   29  (  4.136719,  1.476657,  3.850318 )     1.38882874
  WF centre and spread   30  (  4.200566,  4.201650,  3.832010 )     0.97544293
  WF centre and spread   31  (  4.141645,  4.148109,  3.849023 )     1.34094349
  WF centre and spread   32  (  4.147685,  4.141273,  3.845083 )     1.36317186
  WF centre and spread   33  (  4.200216,  1.400376,  0.016118 )     0.97974335
  WF centre and spread   34  (  4.253288,  1.352970,  0.003070 )     1.29607172
  WF centre and spread   35  (  4.252016,  1.352646, -0.002093 )     1.29484871
  WF centre and spread   36  (  4.196262,  4.201053,  0.057238 )     1.06584233
  WF centre and spread   37  (  4.285864,  4.250258, -0.002587 )     1.35839190
  WF centre and spread   38  (  4.259489,  4.246283,  0.000146 )     1.34187319
  WF centre and spread   39  (  1.399386,  4.201550,  3.832059 )     0.97602865
  WF centre and spread   40  (  1.455769,  4.148637,  3.848308 )     1.35651381
  WF centre and spread   41  (  1.451837,  4.140714,  3.846261 )     1.36584046
  WF centre and spread   42  (  1.399002,  1.399074,  3.839749 )     0.97346048
  WF centre and spread   43  (  1.469100,  1.464812,  3.843122 )     1.43184959
  WF centre and spread   44  (  1.458405,  1.477947,  3.849056 )     1.39550922
  WF centre and spread   45  ( -0.000323,  0.009198,  1.789549 )     1.69816931
  WF centre and spread   46  ( -0.001758,  0.000552,  1.925181 )     0.94218533
  WF centre and spread   47  ( -0.000006, -0.001427,  1.925296 )     0.92525767
  WF centre and spread   48  ( -0.000002,  0.004735,  5.905853 )     1.67273290
  WF centre and spread   49  ( -0.000044,  0.003101,  5.776724 )     0.94124525
  WF centre and spread   50  (  0.000091, -0.003853,  5.774399 )     0.90990751
  WF centre and spread   51  (  2.796853,  2.813059,  5.737644 )     1.70365847
  WF centre and spread   52  (  2.818158,  2.803614,  5.778611 )     0.95040064
  WF centre and spread   53  (  2.799319,  2.738975,  5.780552 )     1.02354255
  WF centre and spread   54  (  2.799898,  2.799766,  2.027137 )     1.58919018
  WF centre and spread   55  (  2.799833,  2.800012,  1.924444 )     0.92769884
  WF centre and spread   56  (  2.800038,  2.798884,  1.923889 )     0.94283700
  Sum of centres and spreads (105.567302,114.856292,130.816846 )   158.18119956

         Spreads (Ang^2)       Omega I      =   107.723710849
        ================       Omega D      =     9.816287353
                               Omega OD     =    40.641201333
    Final Spread (Ang^2)       Omega Total  =   158.181199535
 ------------------------------------------------------------------------------

 Writing checkpoint file smo.chk... done

  
  Omega Invariant:   1-s^2 =   107.723710870 (Ang^2)
                   -2log s =   175.207573400 (Ang^2)
                    acos^2 =   126.454601229 (Ang^2)
 *---------------------------------------------------------------------------*
 |                               PLOTTING                                    |
 *---------------------------------------------------------------------------*


 Calculating interpolated band-structure

 Time to calculate interpolated band structure      11.113 (sec)


 *===========================================================================*
 |                             TIMING INFORMATION                            |
 *===========================================================================*
 |    Tag                                                Ncalls      Time (s)|
 |---------------------------------------------------------------------------|
 |kmesh: get                                        :         1         0.045|
 |overlap: read                                     :         1         2.822|
 |dis: main                                         :         1        81.717|
 |wann: main                                        :         1       344.606|
 |plot: main                                        :         1        12.420|
 *---------------------------------------------------------------------------*
