
     Program PWSCF v.7.5 starts on 29Nov2025 at 20:34:53 
        Git branch: develop
        Last git commit: 70e07caa2a5fab3dd9374bc01196f67e923fc5ea
        Last git commit date: Mon Aug 18 10:06:47 2025 +0000
        Last git commit subject: Merge branch 'stressed-by-optional-variables' into

     This program is part of the open-source Quantum ESPRESSO suite
     for quantum simulation of materials; please cite
         "P. Giannozzi et al., J. Phys.:Condens. Matter 21 395502 (2009);
         "P. Giannozzi et al., J. Phys.:Condens. Matter 29 465901 (2017);
         "P. Giannozzi et al., J. Chem. Phys. 152 154105 (2020);
          URL http://www.quantum-espresso.org", 
     in publications or presentations arising from this work. More details at
     http://www.quantum-espresso.org/quote

     Parallel version (MPI), running on   128 processors

     MPI processes distributed on     1 nodes
     962856 MiB available memory on the printing compute node when the environment starts

     Waiting for input...
     Reading input from standard input
Warning: card &CELL ignored
Warning: card &FCP ignored
Warning: card &RISM ignored

     Current dimensions of program PWSCF are:
     Max number of different atomic species (ntypx) = 10
     Max number of k-points (npk) =  40000
     Max angular momentum in pseudopotentials (lmaxx) =  4
     file Sr.pz-spn-kjpaw_psl.1.0.0.UPF: wavefunction(s)  4P renormalized
     file Mo.pz-spn-kjpaw_psl.1.0.0.UPF: wavefunction(s)  4S 4D renormalized
     file O.pz-n-kjpaw_psl.1.0.0.UPF: wavefunction(s)  2S 2P renormalized
     Found identity + ( -0.5000  0.5000 -0.5000) symmetry
     This is a supercell, fractional translations are disabled
     Message from routine setup:
     using ibrav=0 with symmetry is DISCOURAGED, use correct ibrav instead

     K-points division:     npool     =     128
     Subspace diagonalization in iterative solution of the eigenvalue problem:
     a serial algorithm will be used

     Message from routine divide_et_impera:
     suboptimal parallelization: some nodes have no k-points

     G-vector sticks info
     --------------------
     sticks:   dense  smooth     PW     G-vecs:    dense   smooth      PW
     Sum        3577    1789    497               228191    80831   11835

     Using Slab Decomposition



     bravais-lattice index     =            0
     lattice parameter (alat)  =      10.6088  a.u.
     unit-cell volume          =    1688.5722 (a.u.)^3
     number of atoms/cell      =           20
     number of atomic types    =            3
     number of electrons       =       168.00
     number of Kohn-Sham states=          101
     kinetic-energy cutoff     =      50.0000  Ry
     charge density cutoff     =     400.0000  Ry
     scf convergence threshold =      1.0E-09
     mixing beta               =       0.4000
     number of iterations used =            8  plain     mixing
     Exchange-correlation= SLA  PZ   NOGX NOGC
                           (   1   1   0   0   0   0   0)

     celldm(1)=  10.608847  celldm(2)=   0.000000  celldm(3)=   0.000000
     celldm(4)=   0.000000  celldm(5)=   0.000000  celldm(6)=   0.000000

     crystal axes: (cart. coord. in units of alat)
               a(1) = (   1.000000   0.000000   0.000000 )  
               a(2) = (   0.000000   1.000000   0.000000 )  
               a(3) = (   0.000000   0.000000   1.414214 )  

     reciprocal axes: (cart. coord. in units 2 pi/alat)
               b(1) = (  1.000000  0.000000  0.000000 )  
               b(2) = (  0.000000  1.000000  0.000000 )  
               b(3) = (  0.000000  0.000000  0.707107 )  


     PseudoPot. # 1 for Sr read from file:
     ../../../pseudo/Sr.pz-spn-kjpaw_psl.1.0.0.UPF
     MD5 check sum: 14b1f655f5497b386c4f305353cf4fd4
     Pseudo is Projector augmented-wave + core cor, Zval = 10.0
     Generated using 'atomic' code by A. Dal Corso  v.7.3
     Shape of augmentation charge: PSQ
     Using radial grid of 1221 points,  6 beta functions with: 
                l(1) =   0
                l(2) =   0
                l(3) =   1
                l(4) =   1
                l(5) =   2
                l(6) =   2
     Q(r) pseudized with 0 coefficients 


     PseudoPot. # 2 for Mo read from file:
     ../../../pseudo/Mo.pz-spn-kjpaw_psl.1.0.0.UPF
     MD5 check sum: 2e12aff744a4785a34e7548d4bec1d21
     Pseudo is Projector augmented-wave + core cor, Zval = 14.0
     Generated using 'atomic' code by A. Dal Corso  v.7.3
     Shape of augmentation charge: PSQ
     Using radial grid of 1229 points,  6 beta functions with: 
                l(1) =   0
                l(2) =   0
                l(3) =   1
                l(4) =   1
                l(5) =   2
                l(6) =   2
     Q(r) pseudized with 0 coefficients 


     PseudoPot. # 3 for O  read from file:
     ../../../pseudo/O.pz-n-kjpaw_psl.1.0.0.UPF
     MD5 check sum: 71a951e35f67dc87891058fc5642ed8f
     Pseudo is Projector augmented-wave + core cor, Zval =  6.0
     Generated using 'atomic' code by A. Dal Corso  v.7.3
     Shape of augmentation charge: PSQ
     Using radial grid of 1095 points,  4 beta functions with: 
                l(1) =   0
                l(2) =   0
                l(3) =   1
                l(4) =   1
     Q(r) pseudized with 0 coefficients 


     atomic species   valence    mass     pseudopotential
     Sr               10.00    87.62000     Sr( 1.00)
     Mo               14.00    95.95000     Mo( 1.00)
     O                 6.00    15.99900     O ( 1.00)

      4 Sym. Ops., with inversion, found


                                    s                        frac. trans.

      isym =  1     identity                                     

 cryst.   s( 1) = (     1          0          0      )
                  (     0          1          0      )
                  (     0          0          1      )

 cart.    s( 1) = (  1.0000000  0.0000000  0.0000000 )
                  (  0.0000000  1.0000000  0.0000000 )
                  (  0.0000000  0.0000000  1.0000000 )


      isym =  2     180 deg rotation - cart. axis [1,0,0]        

 cryst.   s( 2) = (     1          0          0      )
                  (     0         -1          0      )
                  (     0          0         -1      )

 cart.    s( 2) = (  1.0000000  0.0000000  0.0000000 )
                  (  0.0000000 -1.0000000  0.0000000 )
                  (  0.0000000  0.0000000 -1.0000000 )


      isym =  3     inversion                                    

 cryst.   s( 3) = (    -1          0          0      )
                  (     0         -1          0      )
                  (     0          0         -1      )

 cart.    s( 3) = ( -1.0000000  0.0000000  0.0000000 )
                  (  0.0000000 -1.0000000  0.0000000 )
                  (  0.0000000  0.0000000 -1.0000000 )


      isym =  4     inv. 180 deg rotation - cart. axis [1,0,0]   

 cryst.   s( 4) = (    -1          0          0      )
                  (     0          1          0      )
                  (     0          0          1      )

 cart.    s( 4) = ( -1.0000000  0.0000000  0.0000000 )
                  (  0.0000000  1.0000000  0.0000000 )
                  (  0.0000000  0.0000000  1.0000000 )


   Cartesian axes

     site n.     atom                  positions (alat units)
         1        Sr     tau(   1) = (   0.0000000   0.5000000   0.3535535  )
         2        Sr     tau(   2) = (   0.0000000   0.5000000   1.0606604  )
         3        Sr     tau(   3) = (   0.5000000   0.0000000   1.0606604  )
         4        Sr     tau(   4) = (   0.5000000   0.0000000   0.3535535  )
         5        Mo     tau(   5) = (   0.0000000   0.0000000   0.0000000  )
         6        Mo     tau(   6) = (   0.0000000   0.0000000   0.7071069  )
         7        Mo     tau(   7) = (   0.5000000   0.5000000   0.7071069  )
         8        Mo     tau(   8) = (   0.5000000   0.5000000   0.0000000  )
         9        O      tau(   9) = (   0.2500000   0.7500000  -0.0314875  )
        10        O      tau(  10) = (   0.2500000   0.2500000   0.0314875  )
        11        O      tau(  11) = (   0.7500000   0.2500000   0.6756195  )
        12        O      tau(  12) = (   0.7500000   0.7500000   0.7385944  )
        13        O      tau(  13) = (   0.7500000   0.2500000   0.0314875  )
        14        O      tau(  14) = (   0.7500000   0.7500000  -0.0314875  )
        15        O      tau(  15) = (   0.2500000   0.7500000   0.7385944  )
        16        O      tau(  16) = (   0.2500000   0.2500000   0.6756195  )
        17        O      tau(  17) = (   0.0000000  -0.0445300   0.3535535  )
        18        O      tau(  18) = (   0.0000000   0.0445300   1.0606604  )
        19        O      tau(  19) = (   0.5000000   0.4554700   1.0606604  )
        20        O      tau(  20) = (   0.5000000   0.5445300   0.3535535  )

   Crystallographic axes

     site n.     atom                  positions (cryst. coord.)
         1        Sr     tau(   1) = (  0.0000000  0.5000000  0.2500000  )
         2        Sr     tau(   2) = (  0.0000000  0.5000000  0.7500000  )
         3        Sr     tau(   3) = (  0.5000000  0.0000000  0.7500000  )
         4        Sr     tau(   4) = (  0.5000000  0.0000000  0.2500000  )
         5        Mo     tau(   5) = (  0.0000000  0.0000000  0.0000000  )
         6        Mo     tau(   6) = (  0.0000000  0.0000000  0.5000000  )
         7        Mo     tau(   7) = (  0.5000000  0.5000000  0.5000000  )
         8        Mo     tau(   8) = (  0.5000000  0.5000000  0.0000000  )
         9        O      tau(   9) = (  0.2500000  0.7500000 -0.0222650  )
        10        O      tau(  10) = (  0.2500000  0.2500000  0.0222650  )
        11        O      tau(  11) = (  0.7500000  0.2500000  0.4777350  )
        12        O      tau(  12) = (  0.7500000  0.7500000  0.5222650  )
        13        O      tau(  13) = (  0.7500000  0.2500000  0.0222650  )
        14        O      tau(  14) = (  0.7500000  0.7500000 -0.0222650  )
        15        O      tau(  15) = (  0.2500000  0.7500000  0.5222650  )
        16        O      tau(  16) = (  0.2500000  0.2500000  0.4777350  )
        17        O      tau(  17) = (  0.0000000 -0.0445300  0.2500000  )
        18        O      tau(  18) = (  0.0000000  0.0445300  0.7500000  )
        19        O      tau(  19) = (  0.5000000  0.4554700  0.7500000  )
        20        O      tau(  20) = (  0.5000000  0.5445300  0.2500000  )

     number of k points=    39  Fermi-Dirac smearing, width (Ry)=  0.0015
                       cart. coord. in units 2pi/alat
        k(    1) = (   0.0000000   0.0000000   0.0000000), wk =   0.0160000
        k(    2) = (   0.0000000   0.0000000   0.1414213), wk =   0.0320000
        k(    3) = (   0.0000000   0.0000000   0.2828427), wk =   0.0320000
        k(    4) = (   0.0000000   0.2000000   0.0000000), wk =   0.0320000
        k(    5) = (   0.0000000   0.2000000   0.1414213), wk =   0.0320000
        k(    6) = (   0.0000000   0.2000000   0.2828427), wk =   0.0320000
        k(    7) = (   0.0000000   0.4000000   0.0000000), wk =   0.0320000
        k(    8) = (   0.0000000   0.4000000   0.1414213), wk =   0.0320000
        k(    9) = (   0.0000000   0.4000000   0.2828427), wk =   0.0320000
        k(   10) = (   0.2000000   0.2000000   0.0000000), wk =   0.0640000
        k(   11) = (   0.2000000   0.2000000   0.1414213), wk =   0.0640000
        k(   12) = (   0.2000000   0.2000000   0.2828427), wk =   0.0640000
        k(   13) = (   0.2000000   0.4000000   0.0000000), wk =   0.0640000
        k(   14) = (   0.2000000   0.4000000   0.1414213), wk =   0.0640000
        k(   15) = (   0.2000000   0.4000000   0.2828427), wk =   0.0640000
        k(   16) = (   0.4000000   0.4000000   0.0000000), wk =   0.0640000
        k(   17) = (   0.4000000   0.4000000   0.1414213), wk =   0.0640000
        k(   18) = (   0.4000000   0.4000000   0.2828427), wk =   0.0640000
        k(   19) = (   0.2000000   0.0000000   0.0000000), wk =   0.0320000
        k(   20) = (   0.2000000   0.0000000  -0.1414213), wk =   0.0640000
        k(   21) = (   0.0000000   0.2000000  -0.1414213), wk =   0.0320000
        k(   22) = (   0.2000000   0.0000000  -0.2828427), wk =   0.0640000
        k(   23) = (   0.0000000   0.2000000  -0.2828427), wk =   0.0320000
        k(   24) = (   0.4000000   0.0000000   0.0000000), wk =   0.0320000
        k(   25) = (   0.4000000   0.0000000  -0.1414213), wk =   0.0640000
        k(   26) = (   0.0000000   0.4000000  -0.1414213), wk =   0.0320000
        k(   27) = (   0.4000000   0.0000000  -0.2828427), wk =   0.0640000
        k(   28) = (   0.0000000   0.4000000  -0.2828427), wk =   0.0320000
        k(   29) = (   0.2000000   0.2000000  -0.1414213), wk =   0.0640000
        k(   30) = (   0.2000000   0.2000000  -0.2828427), wk =   0.0640000
        k(   31) = (   0.4000000   0.2000000   0.0000000), wk =   0.0640000
        k(   32) = (   0.4000000   0.2000000  -0.1414213), wk =   0.0640000
        k(   33) = (  -0.4000000  -0.2000000  -0.1414213), wk =   0.0640000
        k(   34) = (  -0.2000000   0.4000000  -0.1414213), wk =   0.0640000
        k(   35) = (   0.4000000   0.2000000  -0.2828427), wk =   0.0640000
        k(   36) = (  -0.4000000  -0.2000000  -0.2828427), wk =   0.0640000
        k(   37) = (  -0.2000000   0.4000000  -0.2828427), wk =   0.0640000
        k(   38) = (   0.4000000   0.4000000  -0.1414213), wk =   0.0640000
        k(   39) = (   0.4000000   0.4000000  -0.2828427), wk =   0.0640000

                       cryst. coord.
        k(    1) = (   0.0000000   0.0000000   0.0000000), wk =   0.0160000
        k(    2) = (   0.0000000   0.0000000   0.2000000), wk =   0.0320000
        k(    3) = (   0.0000000   0.0000000   0.4000000), wk =   0.0320000
        k(    4) = (   0.0000000   0.2000000   0.0000000), wk =   0.0320000
        k(    5) = (   0.0000000   0.2000000   0.2000000), wk =   0.0320000
        k(    6) = (   0.0000000   0.2000000   0.4000000), wk =   0.0320000
        k(    7) = (   0.0000000   0.4000000   0.0000000), wk =   0.0320000
        k(    8) = (   0.0000000   0.4000000   0.2000000), wk =   0.0320000
        k(    9) = (   0.0000000   0.4000000   0.4000000), wk =   0.0320000
        k(   10) = (   0.2000000   0.2000000   0.0000000), wk =   0.0640000
        k(   11) = (   0.2000000   0.2000000   0.2000000), wk =   0.0640000
        k(   12) = (   0.2000000   0.2000000   0.4000000), wk =   0.0640000
        k(   13) = (   0.2000000   0.4000000   0.0000000), wk =   0.0640000
        k(   14) = (   0.2000000   0.4000000   0.2000000), wk =   0.0640000
        k(   15) = (   0.2000000   0.4000000   0.4000000), wk =   0.0640000
        k(   16) = (   0.4000000   0.4000000   0.0000000), wk =   0.0640000
        k(   17) = (   0.4000000   0.4000000   0.2000000), wk =   0.0640000
        k(   18) = (   0.4000000   0.4000000   0.4000000), wk =   0.0640000
        k(   19) = (   0.2000000   0.0000000   0.0000000), wk =   0.0320000
        k(   20) = (   0.2000000   0.0000000  -0.2000000), wk =   0.0640000
        k(   21) = (   0.0000000   0.2000000  -0.2000000), wk =   0.0320000
        k(   22) = (   0.2000000   0.0000000  -0.4000000), wk =   0.0640000
        k(   23) = (   0.0000000   0.2000000  -0.4000000), wk =   0.0320000
        k(   24) = (   0.4000000   0.0000000   0.0000000), wk =   0.0320000
        k(   25) = (   0.4000000   0.0000000  -0.2000000), wk =   0.0640000
        k(   26) = (   0.0000000   0.4000000  -0.2000000), wk =   0.0320000
        k(   27) = (   0.4000000   0.0000000  -0.4000000), wk =   0.0640000
        k(   28) = (   0.0000000   0.4000000  -0.4000000), wk =   0.0320000
        k(   29) = (   0.2000000   0.2000000  -0.2000000), wk =   0.0640000
        k(   30) = (   0.2000000   0.2000000  -0.4000000), wk =   0.0640000
        k(   31) = (   0.4000000   0.2000000   0.0000000), wk =   0.0640000
        k(   32) = (   0.4000000   0.2000000  -0.2000000), wk =   0.0640000
        k(   33) = (  -0.4000000  -0.2000000  -0.2000000), wk =   0.0640000
        k(   34) = (  -0.2000000   0.4000000  -0.2000000), wk =   0.0640000
        k(   35) = (   0.4000000   0.2000000  -0.4000000), wk =   0.0640000
        k(   36) = (  -0.4000000  -0.2000000  -0.4000000), wk =   0.0640000
        k(   37) = (  -0.2000000   0.4000000  -0.4000000), wk =   0.0640000
        k(   38) = (   0.4000000   0.4000000  -0.2000000), wk =   0.0640000
        k(   39) = (   0.4000000   0.4000000  -0.4000000), wk =   0.0640000

     Dense  grid:   228191 G-vectors     FFT dimensions: (  72,  72,  96)

     Smooth grid:    80831 G-vectors     FFT dimensions: (  48,  48,  72)

     Dynamical RAM for                 wfc:      15.54 MB

     Dynamical RAM for     wfc (w. buffer):      15.54 MB

     Dynamical RAM for           str. fact:      10.45 MB

     Dynamical RAM for           local pot:       0.00 MB

     Dynamical RAM for          nlocal pot:      36.92 MB

     Dynamical RAM for                qrad:       4.82 MB

     Dynamical RAM for          rho,v,vnew:      21.84 MB

     Dynamical RAM for               rhoin:       7.28 MB

     Dynamical RAM for            rho*nmix:      55.71 MB

     Dynamical RAM for           G-vectors:      13.67 MB

     Dynamical RAM for          h,s,v(r/c):       1.87 MB

     Dynamical RAM for          <psi|beta>:       0.37 MB

     Dynamical RAM for                 psi:      31.07 MB

     Dynamical RAM for                hpsi:      31.07 MB

     Dynamical RAM for                spsi:      31.07 MB

     Dynamical RAM for      wfcinit/wfcrot:      31.31 MB

     Dynamical RAM for           addusdens:       8.84 MB

     Estimated static dynamical RAM per process >     143.42 MB

     Estimated max dynamical RAM per process >     294.58 MB

     Estimated total dynamical RAM >      29.91 GB

     Check: negative core charge=   -0.000002

     Initial potential from superposition of free atoms

     starting charge     167.9716, renormalised to     168.0000
     Starting wfcs are  120 randomized atomic wfcs
     Checking if some PAW data can be deallocated... 
       PAW data deallocated on  100 nodes for type:  1
       PAW data deallocated on  100 nodes for type:  2
       PAW data deallocated on   56 nodes for type:  3

     total cpu time spent up to now is        4.0 secs

     per-process dynamical memory:   215.5 Mb

     Self-consistent Calculation

     iteration #  1     ecut=    50.00 Ry     beta= 0.40
     Davidson diagonalization with overlap

---- Real-time Memory Report at c_bands before calling an iterative solver
           262 MiB given to the printing process from OS
           217 MiB allocation reported by mallinfo(arena+hblkhd)
        949096 MiB available memory on the node where the printing process lives
------------------
     ethr =  1.00E-02,  avg # of iterations =  2.2

     total cpu time spent up to now is        6.8 secs

     total energy              =   -2921.37639203 Ry
     estimated scf accuracy    <       5.80290174 Ry

     iteration #  2     ecut=    50.00 Ry     beta= 0.40
     Davidson diagonalization with overlap

---- Real-time Memory Report at c_bands before calling an iterative solver
           330 MiB given to the printing process from OS
           250 MiB allocation reported by mallinfo(arena+hblkhd)
        947521 MiB available memory on the node where the printing process lives
------------------
     ethr =  3.45E-03,  avg # of iterations =  4.1

     total cpu time spent up to now is        9.7 secs

     total energy              =   -2923.40273586 Ry
     estimated scf accuracy    <       1.69282182 Ry

     iteration #  3     ecut=    50.00 Ry     beta= 0.40
     Davidson diagonalization with overlap

---- Real-time Memory Report at c_bands before calling an iterative solver
           353 MiB given to the printing process from OS
           273 MiB allocation reported by mallinfo(arena+hblkhd)
        944789 MiB available memory on the node where the printing process lives
------------------
     ethr =  1.01E-03,  avg # of iterations =  4.1

     total cpu time spent up to now is       13.1 secs

     total energy              =   -2923.69396869 Ry
     estimated scf accuracy    <       0.60146532 Ry

     iteration #  4     ecut=    50.00 Ry     beta= 0.40
     Davidson diagonalization with overlap

---- Real-time Memory Report at c_bands before calling an iterative solver
           358 MiB given to the printing process from OS
           278 MiB allocation reported by mallinfo(arena+hblkhd)
        945036 MiB available memory on the node where the printing process lives
------------------
     ethr =  3.58E-04,  avg # of iterations = 13.4

     total cpu time spent up to now is       17.1 secs

     total energy              =   -2923.75197778 Ry
     estimated scf accuracy    <       1.48640808 Ry

     iteration #  5     ecut=    50.00 Ry     beta= 0.40
     Davidson diagonalization with overlap

---- Real-time Memory Report at c_bands before calling an iterative solver
           361 MiB given to the printing process from OS
           281 MiB allocation reported by mallinfo(arena+hblkhd)
        945289 MiB available memory on the node where the printing process lives
------------------
     ethr =  3.58E-04,  avg # of iterations =  1.5

     total cpu time spent up to now is       19.5 secs

     total energy              =   -2923.80809399 Ry
     estimated scf accuracy    <       0.07671354 Ry

     iteration #  6     ecut=    50.00 Ry     beta= 0.40
     Davidson diagonalization with overlap

---- Real-time Memory Report at c_bands before calling an iterative solver
           363 MiB given to the printing process from OS
           283 MiB allocation reported by mallinfo(arena+hblkhd)
        945444 MiB available memory on the node where the printing process lives
------------------
     ethr =  4.57E-05,  avg # of iterations = 13.1

     total cpu time spent up to now is       23.9 secs

     total energy              =   -2923.80895650 Ry
     estimated scf accuracy    <       0.22293246 Ry

     iteration #  7     ecut=    50.00 Ry     beta= 0.40
     Davidson diagonalization with overlap

---- Real-time Memory Report at c_bands before calling an iterative solver
           366 MiB given to the printing process from OS
           286 MiB allocation reported by mallinfo(arena+hblkhd)
        945682 MiB available memory on the node where the printing process lives
------------------
     ethr =  4.57E-05,  avg # of iterations =  2.6

     total cpu time spent up to now is       27.0 secs

     total energy              =   -2923.81798965 Ry
     estimated scf accuracy    <       0.09549487 Ry

     iteration #  8     ecut=    50.00 Ry     beta= 0.40
     Davidson diagonalization with overlap

---- Real-time Memory Report at c_bands before calling an iterative solver
           368 MiB given to the printing process from OS
           288 MiB allocation reported by mallinfo(arena+hblkhd)
        945870 MiB available memory on the node where the printing process lives
------------------
     ethr =  4.57E-05,  avg # of iterations =  1.1

     total cpu time spent up to now is       29.4 secs

     total energy              =   -2923.82113403 Ry
     estimated scf accuracy    <       0.03459103 Ry

     iteration #  9     ecut=    50.00 Ry     beta= 0.40
     Davidson diagonalization with overlap

---- Real-time Memory Report at c_bands before calling an iterative solver
           371 MiB given to the printing process from OS
           291 MiB allocation reported by mallinfo(arena+hblkhd)
        946036 MiB available memory on the node where the printing process lives
------------------
     ethr =  2.06E-05,  avg # of iterations =  2.9

     total cpu time spent up to now is       32.2 secs

     total energy              =   -2923.82235125 Ry
     estimated scf accuracy    <       0.00988961 Ry

     iteration # 10     ecut=    50.00 Ry     beta= 0.40
     Davidson diagonalization with overlap

---- Real-time Memory Report at c_bands before calling an iterative solver
           373 MiB given to the printing process from OS
           293 MiB allocation reported by mallinfo(arena+hblkhd)
        946226 MiB available memory on the node where the printing process lives
------------------
     ethr =  5.89E-06,  avg # of iterations = 11.0

     total cpu time spent up to now is       35.9 secs

     total energy              =   -2923.82157396 Ry
     estimated scf accuracy    <       0.00181395 Ry

     iteration # 11     ecut=    50.00 Ry     beta= 0.40
     Davidson diagonalization with overlap

---- Real-time Memory Report at c_bands before calling an iterative solver
           376 MiB given to the printing process from OS
           296 MiB allocation reported by mallinfo(arena+hblkhd)
        946488 MiB available memory on the node where the printing process lives
------------------
     ethr =  1.08E-06,  avg # of iterations = 10.9

     total cpu time spent up to now is       41.4 secs

     total energy              =   -2923.82224652 Ry
     estimated scf accuracy    <       0.00124953 Ry

     iteration # 12     ecut=    50.00 Ry     beta= 0.40
     Davidson diagonalization with overlap

---- Real-time Memory Report at c_bands before calling an iterative solver
           376 MiB given to the printing process from OS
           296 MiB allocation reported by mallinfo(arena+hblkhd)
        946838 MiB available memory on the node where the printing process lives
------------------
     ethr =  7.44E-07,  avg # of iterations =  3.7

     total cpu time spent up to now is       44.5 secs

     total energy              =   -2923.82234284 Ry
     estimated scf accuracy    <       0.00015450 Ry

     iteration # 13     ecut=    50.00 Ry     beta= 0.40
     Davidson diagonalization with overlap

---- Real-time Memory Report at c_bands before calling an iterative solver
           376 MiB given to the printing process from OS
           296 MiB allocation reported by mallinfo(arena+hblkhd)
        947031 MiB available memory on the node where the printing process lives
------------------
     ethr =  9.20E-08,  avg # of iterations =  5.4

     total cpu time spent up to now is       48.4 secs

     total energy              =   -2923.82243139 Ry
     estimated scf accuracy    <       0.00003569 Ry

     iteration # 14     ecut=    50.00 Ry     beta= 0.40
     Davidson diagonalization with overlap

---- Real-time Memory Report at c_bands before calling an iterative solver
           376 MiB given to the printing process from OS
           296 MiB allocation reported by mallinfo(arena+hblkhd)
        947250 MiB available memory on the node where the printing process lives
------------------
     ethr =  2.12E-08,  avg # of iterations =  2.2

     total cpu time spent up to now is       51.0 secs

     total energy              =   -2923.82242987 Ry
     estimated scf accuracy    <       0.00001359 Ry

     iteration # 15     ecut=    50.00 Ry     beta= 0.40
     Davidson diagonalization with overlap

---- Real-time Memory Report at c_bands before calling an iterative solver
           376 MiB given to the printing process from OS
           296 MiB allocation reported by mallinfo(arena+hblkhd)
        947403 MiB available memory on the node where the printing process lives
------------------
     ethr =  8.09E-09,  avg # of iterations =  4.5

     total cpu time spent up to now is       54.1 secs

     total energy              =   -2923.82243345 Ry
     estimated scf accuracy    <       0.00000099 Ry

     iteration # 16     ecut=    50.00 Ry     beta= 0.40
     Davidson diagonalization with overlap

---- Real-time Memory Report at c_bands before calling an iterative solver
           376 MiB given to the printing process from OS
           296 MiB allocation reported by mallinfo(arena+hblkhd)
        947590 MiB available memory on the node where the printing process lives
------------------
     ethr =  5.90E-10,  avg # of iterations =  6.2

     total cpu time spent up to now is       57.8 secs

     total energy              =   -2923.82243386 Ry
     estimated scf accuracy    <       0.00000043 Ry

     iteration # 17     ecut=    50.00 Ry     beta= 0.40
     Davidson diagonalization with overlap

---- Real-time Memory Report at c_bands before calling an iterative solver
           376 MiB given to the printing process from OS
           296 MiB allocation reported by mallinfo(arena+hblkhd)
        947784 MiB available memory on the node where the printing process lives
------------------
     ethr =  2.58E-10,  avg # of iterations =  1.6

     total cpu time spent up to now is       60.2 secs

     total energy              =   -2923.82243382 Ry
     estimated scf accuracy    <       0.00000022 Ry

     iteration # 18     ecut=    50.00 Ry     beta= 0.40
     Davidson diagonalization with overlap

---- Real-time Memory Report at c_bands before calling an iterative solver
           376 MiB given to the printing process from OS
           296 MiB allocation reported by mallinfo(arena+hblkhd)
        947916 MiB available memory on the node where the printing process lives
------------------
     ethr =  1.30E-10,  avg # of iterations =  3.2

     total cpu time spent up to now is       63.2 secs

     total energy              =   -2923.82243385 Ry
     estimated scf accuracy    <       0.00000008 Ry

     iteration # 19     ecut=    50.00 Ry     beta= 0.40
     Davidson diagonalization with overlap

---- Real-time Memory Report at c_bands before calling an iterative solver
           376 MiB given to the printing process from OS
           296 MiB allocation reported by mallinfo(arena+hblkhd)
        948091 MiB available memory on the node where the printing process lives
------------------
     ethr =  4.87E-11,  avg # of iterations =  3.8

     total cpu time spent up to now is       66.1 secs

     total energy              =   -2923.82243385 Ry
     estimated scf accuracy    <       0.00000013 Ry

     iteration # 20     ecut=    50.00 Ry     beta= 0.40
     Davidson diagonalization with overlap

---- Real-time Memory Report at c_bands before calling an iterative solver
           376 MiB given to the printing process from OS
           296 MiB allocation reported by mallinfo(arena+hblkhd)
        948243 MiB available memory on the node where the printing process lives
------------------
     ethr =  4.87E-11,  avg # of iterations =  1.8

     total cpu time spent up to now is       68.6 secs

     total energy              =   -2923.82243386 Ry
     estimated scf accuracy    <          4.6E-09 Ry

     iteration # 21     ecut=    50.00 Ry     beta= 0.40
     Davidson diagonalization with overlap

---- Real-time Memory Report at c_bands before calling an iterative solver
           376 MiB given to the printing process from OS
           296 MiB allocation reported by mallinfo(arena+hblkhd)
        948402 MiB available memory on the node where the printing process lives
------------------
     ethr =  2.73E-12,  avg # of iterations =  7.4

     total cpu time spent up to now is       72.5 secs

     total energy              =   -2923.82243386 Ry
     estimated scf accuracy    <          3.8E-09 Ry

     iteration # 22     ecut=    50.00 Ry     beta= 0.40
     Davidson diagonalization with overlap

---- Real-time Memory Report at c_bands before calling an iterative solver
           376 MiB given to the printing process from OS
           296 MiB allocation reported by mallinfo(arena+hblkhd)
        948571 MiB available memory on the node where the printing process lives
------------------
     ethr =  2.27E-12,  avg # of iterations =  2.1

     total cpu time spent up to now is       75.2 secs

     End of self-consistent calculation

          k = 0.0000 0.0000 0.0000 ( 10085 PWs)   bands (ev):

   -49.0094 -49.0086 -49.0065 -49.0055 -23.3232 -23.3156 -23.3119 -23.3062
   -23.3005 -23.2966 -23.2392 -23.2371 -23.2358 -23.2284 -23.2244 -23.2213
   -22.0133 -21.9819 -21.9758 -21.9601  -6.9921  -6.7415  -6.2832  -6.1795
    -6.1214  -6.0355  -5.8976  -5.8079  -5.4113  -5.3985  -5.3599  -5.3288
    -4.3192  -4.2526  -4.1512  -4.0485  -4.0113  -3.9818  -3.9745  -3.9692
    -3.9668  -3.6553  -3.5659  -3.5542   5.1616   5.1856   5.2156   5.3014
     5.3348   5.4278   5.6159   6.2682   6.2800   6.2823   7.2006   7.2089
     7.6735   7.6840   7.6926   7.7179   7.7644   7.7679   7.7928   7.8373
     8.1360   8.6790   8.7375   8.8337   9.0173   9.0885   9.1203   9.4009
     9.4318   9.6883   9.6989   9.7257   9.9429  10.0027  10.0796  10.1146
    11.6647  11.6989  11.7418  11.8170  13.9807  14.1115  14.2373  14.2880
    14.7589  15.0152  15.0965  15.3021  15.5262  15.6364  15.7396  15.8311
    16.0305  16.1069  16.5080  17.0646  17.1869

     occupation numbers 
     1.0000   1.0000   1.0000   1.0000   1.0000   1.0000   1.0000   1.0000
     1.0000   1.0000   1.0000   1.0000   1.0000   1.0000   1.0000   1.0000
     1.0000   1.0000   1.0000   1.0000   1.0000   1.0000   1.0000   1.0000
     1.0000   1.0000   1.0000   1.0000   1.0000   1.0000   1.0000   1.0000
     1.0000   1.0000   1.0000   1.0000   1.0000   1.0000   1.0000   1.0000
     1.0000   1.0000   1.0000   1.0000   1.0000   1.0000   1.0000   1.0000
     1.0000   1.0000   1.0000   1.0000   1.0000   1.0000   1.0000   1.0000
     1.0000   1.0000   1.0000   1.0000   1.0000   1.0000   1.0000   1.0000
     1.0000   1.0000   1.0000   1.0000   1.0000   1.0000   1.0000   1.0000
     1.0000   1.0000   1.0000   1.0000   1.0000   1.0000   1.0000   1.0000
     1.0000   1.0000   1.0000   1.0000   0.0000   0.0000   0.0000   0.0000
     0.0000   0.0000   0.0000   0.0000   0.0000   0.0000   0.0000   0.0000
     0.0000   0.0000   0.0000   0.0000   0.0000

          k = 0.0000 0.0000 0.1414 ( 10050 PWs)   bands (ev):

   -49.0093 -49.0083 -49.0066 -49.0053 -23.3163 -23.3139 -23.3121 -23.3002
   -23.2988 -23.2969 -23.2443 -23.2391 -23.2389 -23.2340 -23.2241 -23.2214
   -22.0102 -21.9848 -21.9743 -21.9616  -6.9612  -6.7457  -6.2063  -6.1500
    -6.1158  -6.0494  -5.8859  -5.7671  -5.4913  -5.4565  -5.4337  -5.3900
    -4.2879  -4.1779  -4.0817  -4.0450  -4.0149  -4.0093  -3.9706  -3.9699
    -3.9361  -3.7020  -3.6137  -3.5907   5.1639   5.1833   5.3116   5.3420
     5.5071   5.5391   5.7733   6.1873   6.3365   6.3384   7.0459   7.0615
     7.5551   7.6046   7.6497   7.7520   7.7736   7.8460   7.8690   7.9375
     8.2368   8.3024   8.8629   8.9247   8.9377   8.9824   8.9991   9.3463
     9.4061   9.4463   9.6088   9.6500   9.8898   9.9348  10.1114  10.1186
    11.7087  11.8039  11.9741  12.0394  13.8274  14.0177  14.1749  14.3533
    14.8850  14.9013  15.1125  15.2821  15.5276  15.5942  15.9169  15.9455
    16.2221  16.2506  16.8472  17.2239  17.3927

     occupation numbers 
     1.0000   1.0000   1.0000   1.0000   1.0000   1.0000   1.0000   1.0000
     1.0000   1.0000   1.0000   1.0000   1.0000   1.0000   1.0000   1.0000
     1.0000   1.0000   1.0000   1.0000   1.0000   1.0000   1.0000   1.0000
     1.0000   1.0000   1.0000   1.0000   1.0000   1.0000   1.0000   1.0000
     1.0000   1.0000   1.0000   1.0000   1.0000   1.0000   1.0000   1.0000
     1.0000   1.0000   1.0000   1.0000   1.0000   1.0000   1.0000   1.0000
     1.0000   1.0000   1.0000   1.0000   1.0000   1.0000   1.0000   1.0000
     1.0000   1.0000   1.0000   1.0000   1.0000   1.0000   1.0000   1.0000
     1.0000   1.0000   1.0000   1.0000   1.0000   1.0000   1.0000   1.0000
     1.0000   1.0000   1.0000   1.0000   1.0000   1.0000   1.0000   1.0000
     1.0000   1.0000   1.0000   1.0000   0.0000   0.0000   0.0000   0.0000
     0.0000   0.0000   0.0000   0.0000   0.0000   0.0000   0.0000   0.0000
     0.0000   0.0000   0.0000   0.0000   0.0000

          k = 0.0000 0.0000 0.2828 ( 10046 PWs)   bands (ev):

   -49.0091 -49.0085 -49.0063 -49.0055 -23.3145 -23.3132 -23.2992 -23.2979
   -23.2932 -23.2797 -23.2664 -23.2564 -23.2381 -23.2368 -23.2233 -23.2222
   -22.0022 -21.9925 -21.9704 -21.9655  -6.8813  -6.7918  -6.0998  -6.0759
    -6.0345  -5.9980  -5.9005  -5.7254  -5.6633  -5.5593  -5.5445  -5.5245
    -4.2046  -4.0983  -4.0357  -4.0242  -4.0088  -3.9738  -3.9734  -3.9191
    -3.8309  -3.8222  -3.7433  -3.6907   5.1700   5.1774   5.3574   5.3646
     5.7160   5.9755   6.1612   6.4078   6.4947   6.5015   6.7570   6.7832
     6.9705   7.3091   7.6704   7.7143   7.7143   7.7243   8.1275   8.1539
     8.2340   8.4584   8.5004   8.5413   8.7259   8.7331   9.3069   9.3617
     9.4398   9.4891   9.5063   9.5574   9.6658   9.7138  10.1274  10.1306
    11.7351  11.7714  12.6440  12.7095  13.3412  13.4448  14.3589  14.5389
    14.6317  14.7874  15.1610  15.2281  15.5335  15.5509  16.3340  16.4465
    16.6445  16.8715  16.9794  17.1515  17.3719

     occupation numbers 
     1.0000   1.0000   1.0000   1.0000   1.0000   1.0000   1.0000   1.0000
     1.0000   1.0000   1.0000   1.0000   1.0000   1.0000   1.0000   1.0000
     1.0000   1.0000   1.0000   1.0000   1.0000   1.0000   1.0000   1.0000
     1.0000   1.0000   1.0000   1.0000   1.0000   1.0000   1.0000   1.0000
     1.0000   1.0000   1.0000   1.0000   1.0000   1.0000   1.0000   1.0000
     1.0000   1.0000   1.0000   1.0000   1.0000   1.0000   1.0000   1.0000
     1.0000   1.0000   1.0000   1.0000   1.0000   1.0000   1.0000   1.0000
     1.0000   1.0000   1.0000   1.0000   1.0000   1.0000   1.0000   1.0000
     1.0000   1.0000   1.0000   1.0000   1.0000   1.0000   1.0000   1.0000
     1.0000   1.0000   1.0000   1.0000   1.0000   1.0000   1.0000   1.0000
     1.0000   1.0000   1.0000   1.0000   0.9998   0.9714   0.0000   0.0000
     0.0000   0.0000   0.0000   0.0000   0.0000   0.0000   0.0000   0.0000
     0.0000   0.0000   0.0000   0.0000   0.0000

          k = 0.0000 0.2000 0.0000 ( 10076 PWs)   bands (ev):

   -49.0092 -49.0078 -49.0073 -49.0056 -23.3207 -23.3102 -23.3070 -23.3049
   -23.2934 -23.2894 -23.2484 -23.2440 -23.2351 -23.2318 -23.2296 -23.2283
   -22.0072 -21.9808 -21.9771 -21.9632  -6.8732  -6.7402  -6.4419  -6.1418
    -6.0882  -5.9749  -5.8338  -5.7888  -5.6265  -5.4775  -5.4750  -5.4044
    -4.2415  -4.2228  -4.0445  -4.0183  -4.0103  -3.9886  -3.9552  -3.8781
    -3.8560  -3.6964  -3.5936  -3.5898   5.2843   5.3041   5.4170   5.4403
     5.5455   5.6895   5.8003   6.1859   6.3291   6.3923   6.8950   7.2551
     7.2622   7.3132   7.4371   7.4641   7.6245   7.6265   7.7259   8.5082
     8.5180   8.5457   8.6932   8.7195   8.7566   8.8971   8.9596   9.1087
     9.1726   9.2684   9.4262   9.5333   9.9171   9.9379   9.9761   9.9969
    11.9575  12.0757  12.1940  12.3393  13.9980  14.0295  14.0572  14.2676
    14.7566  14.8045  15.0034  15.0467  15.8182  16.0396  16.0656  16.0728
    16.3873  16.4345  16.4731  17.3195  17.4666

     occupation numbers 
     1.0000   1.0000   1.0000   1.0000   1.0000   1.0000   1.0000   1.0000
     1.0000   1.0000   1.0000   1.0000   1.0000   1.0000   1.0000   1.0000
     1.0000   1.0000   1.0000   1.0000   1.0000   1.0000   1.0000   1.0000
     1.0000   1.0000   1.0000   1.0000   1.0000   1.0000   1.0000   1.0000
     1.0000   1.0000   1.0000   1.0000   1.0000   1.0000   1.0000   1.0000
     1.0000   1.0000   1.0000   1.0000   1.0000   1.0000   1.0000   1.0000
     1.0000   1.0000   1.0000   1.0000   1.0000   1.0000   1.0000   1.0000
     1.0000   1.0000   1.0000   1.0000   1.0000   1.0000   1.0000   1.0000
     1.0000   1.0000   1.0000   1.0000   1.0000   1.0000   1.0000   1.0000
     1.0000   1.0000   1.0000   1.0000   1.0000   1.0000   1.0000   1.0000
     1.0000   1.0000   1.0000   1.0000   0.0000   0.0000   0.0000   0.0000
     0.0000   0.0000   0.0000   0.0000   0.0000   0.0000   0.0000   0.0000
     0.0000   0.0000   0.0000   0.0000   0.0000

          k = 0.0000 0.2000 0.1414 ( 10060 PWs)   bands (ev):

   -49.0092 -49.0080 -49.0069 -49.0056 -23.3133 -23.3091 -23.3053 -23.2997
   -23.2930 -23.2897 -23.2482 -23.2449 -23.2432 -23.2365 -23.2314 -23.2286
   -22.0046 -21.9833 -21.9758 -21.9645  -6.8477  -6.7259  -6.3727  -6.1273
    -6.0806  -5.9945  -5.7924  -5.7783  -5.7109  -5.5430  -5.4921  -5.4553
    -4.2216  -4.1836  -4.0444  -4.0258  -4.0064  -3.9885  -3.9112  -3.8682
    -3.8586  -3.7370  -3.6231  -3.6142   5.4192   5.4381   5.4635   5.5390
     5.5646   5.7412   5.8482   6.2204   6.3818   6.3885   6.9650   7.0944
     7.1380   7.3276   7.3682   7.4961   7.5885   7.6114   7.6515   8.2992
     8.4323   8.4809   8.5524   8.6860   8.8927   8.9490   9.0230   9.0661
     9.1985   9.2070   9.3837   9.3961   9.8739   9.9027   9.9716   9.9765
    12.1495  12.2462  12.2876  12.3251  13.8823  14.0433  14.0688  14.1264
    14.7962  14.8170  14.8893  14.9806  16.0533  16.0671  16.0702  16.1994
    16.5212  16.5663  16.8335  17.6030  17.6521

     occupation numbers 
     1.0000   1.0000   1.0000   1.0000   1.0000   1.0000   1.0000   1.0000
     1.0000   1.0000   1.0000   1.0000   1.0000   1.0000   1.0000   1.0000
     1.0000   1.0000   1.0000   1.0000   1.0000   1.0000   1.0000   1.0000
     1.0000   1.0000   1.0000   1.0000   1.0000   1.0000   1.0000   1.0000
     1.0000   1.0000   1.0000   1.0000   1.0000   1.0000   1.0000   1.0000
     1.0000   1.0000   1.0000   1.0000   1.0000   1.0000   1.0000   1.0000
     1.0000   1.0000   1.0000   1.0000   1.0000   1.0000   1.0000   1.0000
     1.0000   1.0000   1.0000   1.0000   1.0000   1.0000   1.0000   1.0000
     1.0000   1.0000   1.0000   1.0000   1.0000   1.0000   1.0000   1.0000
     1.0000   1.0000   1.0000   1.0000   1.0000   1.0000   1.0000   1.0000
     1.0000   1.0000   1.0000   1.0000   0.0000   0.0000   0.0000   0.0000
     0.0000   0.0000   0.0000   0.0000   0.0000   0.0000   0.0000   0.0000
     0.0000   0.0000   0.0000   0.0000   0.0000

          k = 0.0000 0.2000 0.2828 ( 10071 PWs)   bands (ev):

   -49.0088 -49.0083 -49.0066 -49.0061 -23.3086 -23.3068 -23.2920 -23.2914
   -23.2908 -23.2807 -23.2652 -23.2573 -23.2464 -23.2447 -23.2305 -23.2295
   -21.9979 -21.9898 -21.9723 -21.9680  -6.7852  -6.7294  -6.1933  -6.0652
    -6.0595  -6.0287  -5.8838  -5.8281  -5.6954  -5.6131  -5.5713  -5.5546
    -4.1884  -4.1103  -4.0773  -4.0470  -3.9694  -3.9393  -3.8994  -3.8462
    -3.8101  -3.7864  -3.7019  -3.6873   5.4250   5.4322   5.5908   5.6022
     5.8883   6.0529   6.1576   6.3617   6.5624   6.5901   6.7679   6.8323
     6.9121   7.1256   7.3893   7.4483   7.4643   7.5633   7.6992   7.7745
     8.0730   8.0851   8.5937   8.6946   8.9288   9.0415   9.1456   9.2016
     9.2162   9.2831   9.3055   9.4273   9.6580   9.7207   9.9750   9.9773
    12.2362  12.2869  12.7707  12.8310  13.4166  13.4968  14.2565  14.3283
    14.5604  14.6129  14.8615  14.9260  16.0688  16.0689  16.6413  16.6841
    16.8879  17.0945  17.1753  17.3414  17.3710

     occupation numbers 
     1.0000   1.0000   1.0000   1.0000   1.0000   1.0000   1.0000   1.0000
     1.0000   1.0000   1.0000   1.0000   1.0000   1.0000   1.0000   1.0000
     1.0000   1.0000   1.0000   1.0000   1.0000   1.0000   1.0000   1.0000
     1.0000   1.0000   1.0000   1.0000   1.0000   1.0000   1.0000   1.0000
     1.0000   1.0000   1.0000   1.0000   1.0000   1.0000   1.0000   1.0000
     1.0000   1.0000   1.0000   1.0000   1.0000   1.0000   1.0000   1.0000
     1.0000   1.0000   1.0000   1.0000   1.0000   1.0000   1.0000   1.0000
     1.0000   1.0000   1.0000   1.0000   1.0000   1.0000   1.0000   1.0000
     1.0000   1.0000   1.0000   1.0000   1.0000   1.0000   1.0000   1.0000
     1.0000   1.0000   1.0000   1.0000   1.0000   1.0000   1.0000   1.0000
     1.0000   1.0000   1.0000   1.0000   0.9927   0.7273   0.0000   0.0000
     0.0000   0.0000   0.0000   0.0000   0.0000   0.0000   0.0000   0.0000
     0.0000   0.0000   0.0000   0.0000   0.0000

          k = 0.0000 0.4000 0.0000 ( 10072 PWs)   bands (ev):

   -49.0085 -49.0078 -49.0071 -49.0064 -23.3153 -23.3101 -23.2939 -23.2865
   -23.2745 -23.2707 -23.2704 -23.2631 -23.2509 -23.2472 -23.2334 -23.2313
   -21.9940 -21.9826 -21.9770 -21.9703  -6.7263  -6.6368  -6.5428  -6.0807
    -6.0038  -5.9941  -5.9062  -5.8102  -5.7800  -5.6315  -5.5930  -5.5866
    -4.1984  -4.1224  -4.0945  -4.0273  -3.9148  -3.8527  -3.7974  -3.7972
    -3.7198  -3.7103  -3.7044  -3.6467   5.3112   5.3172   6.0497   6.0731
     6.1038   6.1333   6.2867   6.3430   6.4633   6.4871   6.7795   6.7981
     6.8600   6.9166   6.9942   7.0313   7.3676   7.5039   7.6265   7.6453
     7.8982   8.1618   8.4669   8.6834   8.7584   8.9168   8.9442   9.1159
     9.2079   9.2429   9.3288   9.4256   9.5143   9.6669   9.6680   9.8512
    12.6398  12.8033  13.1117  13.3001  13.4645  13.5273  13.9991  14.2867
    14.2884  14.4208  14.5518  14.7439  16.0267  16.3116  16.7287  17.1629
    17.3391  17.3650  17.4207  17.4976  17.9057

     occupation numbers 
     1.0000   1.0000   1.0000   1.0000   1.0000   1.0000   1.0000   1.0000
     1.0000   1.0000   1.0000   1.0000   1.0000   1.0000   1.0000   1.0000
     1.0000   1.0000   1.0000   1.0000   1.0000   1.0000   1.0000   1.0000
     1.0000   1.0000   1.0000   1.0000   1.0000   1.0000   1.0000   1.0000
     1.0000   1.0000   1.0000   1.0000   1.0000   1.0000   1.0000   1.0000
     1.0000   1.0000   1.0000   1.0000   1.0000   1.0000   1.0000   1.0000
     1.0000   1.0000   1.0000   1.0000   1.0000   1.0000   1.0000   1.0000
     1.0000   1.0000   1.0000   1.0000   1.0000   1.0000   1.0000   1.0000
     1.0000   1.0000   1.0000   1.0000   1.0000   1.0000   1.0000   1.0000
     1.0000   1.0000   1.0000   1.0000   1.0000   1.0000   1.0000   1.0000
     1.0000   1.0000   1.0000   1.0000   0.9284   0.3739   0.0000   0.0000
     0.0000   0.0000   0.0000   0.0000   0.0000   0.0000   0.0000   0.0000
     0.0000   0.0000   0.0000   0.0000   0.0000

          k = 0.0000 0.4000 0.1414 ( 10078 PWs)   bands (ev):

   -49.0085 -49.0076 -49.0074 -49.0063 -23.3079 -23.3027 -23.2930 -23.2871
   -23.2741 -23.2709 -23.2698 -23.2640 -23.2505 -23.2477 -23.2412 -23.2388
   -21.9923 -21.9814 -21.9786 -21.9715  -6.6805  -6.5762  -6.5330  -6.1146
    -5.9935  -5.9920  -5.9057  -5.8042  -5.7808  -5.6881  -5.6244  -5.6224
    -4.1669  -4.1109  -4.1024  -4.0545  -3.9215  -3.8940  -3.8221  -3.7834
    -3.7444  -3.7012  -3.6623  -3.6375   5.5468   5.5550   6.0528   6.0600
     6.1062   6.1294   6.3444   6.4476   6.4857   6.5552   6.7273   6.8257
     6.8549   6.9693   6.9928   7.0474   7.1979   7.4278   7.4387   7.5185
     7.8201   7.9035   8.3212   8.4807   8.8656   8.9226   9.1039   9.1224
     9.1677   9.3033   9.3318   9.4583   9.5250   9.6602   9.6694   9.8256
    12.7732  12.9091  13.1361  13.3022  13.5272  13.5955  13.9993  14.1836
    14.2168  14.2627  14.4809  14.5643  16.3713  16.6839  16.8472  17.2479
    17.3322  17.3734  17.4263  17.5584  17.9472

     occupation numbers 
     1.0000   1.0000   1.0000   1.0000   1.0000   1.0000   1.0000   1.0000
     1.0000   1.0000   1.0000   1.0000   1.0000   1.0000   1.0000   1.0000
     1.0000   1.0000   1.0000   1.0000   1.0000   1.0000   1.0000   1.0000
     1.0000   1.0000   1.0000   1.0000   1.0000   1.0000   1.0000   1.0000
     1.0000   1.0000   1.0000   1.0000   1.0000   1.0000   1.0000   1.0000
     1.0000   1.0000   1.0000   1.0000   1.0000   1.0000   1.0000   1.0000
     1.0000   1.0000   1.0000   1.0000   1.0000   1.0000   1.0000   1.0000
     1.0000   1.0000   1.0000   1.0000   1.0000   1.0000   1.0000   1.0000
     1.0000   1.0000   1.0000   1.0000   1.0000   1.0000   1.0000   1.0000
     1.0000   1.0000   1.0000   1.0000   1.0000   1.0000   1.0000   1.0000
     1.0000   1.0000   1.0000   1.0000   0.3748   0.0207   0.0000   0.0000
     0.0000   0.0000   0.0000   0.0000   0.0000   0.0000   0.0000   0.0000
     0.0000   0.0000   0.0000   0.0000   0.0000

          k = 0.0000 0.4000 0.2828 ( 10090 PWs)   bands (ev):

   -49.0083 -49.0077 -49.0073 -49.0067 -23.2925 -23.2895 -23.2865 -23.2832
   -23.2732 -23.2719 -23.2684 -23.2663 -23.2611 -23.2580 -23.2497 -23.2485
   -21.9881 -21.9828 -21.9783 -21.9745  -6.5854  -6.5330  -6.4132  -6.2320
    -5.9640  -5.9609  -5.9245  -5.8597  -5.7643  -5.7313  -5.6926  -5.6921
    -4.1131  -4.1061  -4.0984  -4.0900  -3.9250  -3.9096  -3.8823  -3.8643
    -3.6829  -3.6633  -3.6530  -3.6366   6.0430   6.0498   6.1126   6.1211
     6.1267   6.1364   6.5028   6.5389   6.5574   6.7441   6.7508   6.7844
     6.8422   6.9387   6.9888   6.9986   7.0782   7.1667   7.1805   7.4856
     7.4942   7.5234   7.7518   7.8808   9.0706   9.1224   9.1423   9.1825
     9.3577   9.3950   9.4167   9.5288   9.5466   9.5623   9.6570   9.7402
    13.1370  13.2285  13.2366  13.2561  13.6828  13.7293  13.8076  13.8209
    14.1319  14.1755  14.1757  14.2018  17.1053  17.2917  17.3794  17.3856
    17.3968  17.3997  17.5337  17.5403  17.8410

     occupation numbers 
     1.0000   1.0000   1.0000   1.0000   1.0000   1.0000   1.0000   1.0000
     1.0000   1.0000   1.0000   1.0000   1.0000   1.0000   1.0000   1.0000
     1.0000   1.0000   1.0000   1.0000   1.0000   1.0000   1.0000   1.0000
     1.0000   1.0000   1.0000   1.0000   1.0000   1.0000   1.0000   1.0000
     1.0000   1.0000   1.0000   1.0000   1.0000   1.0000   1.0000   1.0000
     1.0000   1.0000   1.0000   1.0000   1.0000   1.0000   1.0000   1.0000
     1.0000   1.0000   1.0000   1.0000   1.0000   1.0000   1.0000   1.0000
     1.0000   1.0000   1.0000   1.0000   1.0000   1.0000   1.0000   1.0000
     1.0000   1.0000   1.0000   1.0000   1.0000   1.0000   1.0000   1.0000
     1.0000   1.0000   1.0000   1.0000   1.0000   1.0000   1.0000   1.0000
     1.0000   1.0000   1.0000   1.0000   0.0003   0.0000   0.0000   0.0000
     0.0000   0.0000   0.0000   0.0000   0.0000   0.0000   0.0000   0.0000
     0.0000   0.0000   0.0000   0.0000   0.0000

          k = 0.2000 0.2000 0.0000 ( 10069 PWs)   bands (ev):

   -49.0091 -49.0077 -49.0073 -49.0055 -23.3191 -23.3138 -23.3076 -23.3074
   -23.2792 -23.2751 -23.2647 -23.2583 -23.2346 -23.2306 -23.2290 -23.2254
   -22.0020 -21.9801 -21.9777 -21.9658  -6.7881  -6.7739  -6.5702  -6.1260
    -5.9862  -5.9321  -5.8704  -5.7245  -5.7088  -5.5559  -5.5499  -5.5481
    -4.1415  -4.1140  -4.0615  -3.9928  -3.9894  -3.9434  -3.8998  -3.8311
    -3.8069  -3.7391  -3.6238  -3.5817   5.2008   5.2416   5.3037   5.4142
     5.8567   5.9838   6.1896   6.3661   6.3910   6.4885   6.5048   6.9645
     7.0243   7.3335   7.3867   7.5284   7.5418   7.7007   7.7086   8.2363
     8.4696   8.5048   8.5147   8.7177   8.7432   8.7615   8.8020   8.8652
     8.9999   9.3404   9.5431   9.5566   9.7179   9.7330   9.7827  10.0323
    11.7471  12.6698  12.6887  12.7672  13.5136  14.0605  14.2106  14.3171
    14.6147  14.6695  14.8513  14.9396  15.7362  16.1946  16.2615  16.4118
    16.4464  16.5755  17.1300  17.3413  17.8800

     occupation numbers 
     1.0000   1.0000   1.0000   1.0000   1.0000   1.0000   1.0000   1.0000
     1.0000   1.0000   1.0000   1.0000   1.0000   1.0000   1.0000   1.0000
     1.0000   1.0000   1.0000   1.0000   1.0000   1.0000   1.0000   1.0000
     1.0000   1.0000   1.0000   1.0000   1.0000   1.0000   1.0000   1.0000
     1.0000   1.0000   1.0000   1.0000   1.0000   1.0000   1.0000   1.0000
     1.0000   1.0000   1.0000   1.0000   1.0000   1.0000   1.0000   1.0000
     1.0000   1.0000   1.0000   1.0000   1.0000   1.0000   1.0000   1.0000
     1.0000   1.0000   1.0000   1.0000   1.0000   1.0000   1.0000   1.0000
     1.0000   1.0000   1.0000   1.0000   1.0000   1.0000   1.0000   1.0000
     1.0000   1.0000   1.0000   1.0000   1.0000   1.0000   1.0000   1.0000
     1.0000   1.0000   1.0000   1.0000   0.5392   0.0000   0.0000   0.0000
     0.0000   0.0000   0.0000   0.0000   0.0000   0.0000   0.0000   0.0000
     0.0000   0.0000   0.0000   0.0000   0.0000

          k = 0.2000 0.2000 0.1414 ( 10067 PWs)   bands (ev):

   -49.0089 -49.0077 -49.0073 -49.0057 -23.3144 -23.3100 -23.3081 -23.3003
   -23.2789 -23.2756 -23.2641 -23.2589 -23.2427 -23.2378 -23.2287 -23.2258
   -21.9998 -21.9821 -21.9766 -21.9669  -6.7593  -6.7566  -6.5045  -6.1119
    -5.9968  -5.9503  -5.8369  -5.8256  -5.7056  -5.6059  -5.5583  -5.5482
    -4.1898  -4.0679  -4.0349  -4.0115  -3.9974  -3.9108  -3.8794  -3.8422
    -3.8012  -3.7426  -3.6462  -3.6164   5.2428   5.2439   5.5401   5.6136
     5.9012   6.0256   6.1961   6.3307   6.4661   6.4819   6.6132   6.9413
     7.0471   7.1114   7.2417   7.4737   7.4971   7.6601   7.6863   8.1285
     8.2464   8.3899   8.3911   8.7243   8.7782   8.8196   8.9462   9.0386
     9.0651   9.2896   9.3757   9.4128   9.6871   9.7339   9.7822   9.9717
    12.0392  12.6846  12.7557  12.7941  13.6058  13.9126  14.1228  14.2613
    14.5871  14.6778  14.8282  14.8596  15.8155  16.1793  16.4330  16.6149
    16.7008  16.7778  17.1802  17.5410  17.8885

     occupation numbers 
     1.0000   1.0000   1.0000   1.0000   1.0000   1.0000   1.0000   1.0000
     1.0000   1.0000   1.0000   1.0000   1.0000   1.0000   1.0000   1.0000
     1.0000   1.0000   1.0000   1.0000   1.0000   1.0000   1.0000   1.0000
     1.0000   1.0000   1.0000   1.0000   1.0000   1.0000   1.0000   1.0000
     1.0000   1.0000   1.0000   1.0000   1.0000   1.0000   1.0000   1.0000
     1.0000   1.0000   1.0000   1.0000   1.0000   1.0000   1.0000   1.0000
     1.0000   1.0000   1.0000   1.0000   1.0000   1.0000   1.0000   1.0000
     1.0000   1.0000   1.0000   1.0000   1.0000   1.0000   1.0000   1.0000
     1.0000   1.0000   1.0000   1.0000   1.0000   1.0000   1.0000   1.0000
     1.0000   1.0000   1.0000   1.0000   1.0000   1.0000   1.0000   1.0000
     1.0000   1.0000   1.0000   1.0000   0.0126   0.0000   0.0000   0.0000
     0.0000   0.0000   0.0000   0.0000   0.0000   0.0000   0.0000   0.0000
     0.0000   0.0000   0.0000   0.0000   0.0000

          k = 0.2000 0.2000 0.2828 ( 10073 PWs)   bands (ev):

   -49.0085 -49.0081 -49.0068 -49.0064 -23.3121 -23.3099 -23.2901 -23.2815
   -23.2778 -23.2767 -23.2655 -23.2614 -23.2606 -23.2561 -23.2278 -23.2267
   -21.9943 -21.9875 -21.9736 -21.9699  -6.7217  -6.7163  -6.3320  -6.1381
    -5.9770  -5.9758  -5.9650  -5.8484  -5.7103  -5.6217  -5.6128  -5.5856
    -4.1883  -4.1237  -4.0344  -4.0110  -3.9282  -3.8729  -3.8421  -3.8067
    -3.7762  -3.7692  -3.7068  -3.7020   5.2495   5.2542   6.0029   6.0767
     6.1384   6.1516   6.2101   6.3854   6.4873   6.7019   6.7582   6.8065
     6.8798   6.9017   6.9908   7.1698   7.4280   7.5662   7.6285   7.6321
     7.8882   8.1673   8.4043   8.6001   8.8477   8.9214   9.0526   9.1934
     9.2224   9.2857   9.3502   9.4523   9.5259   9.6607   9.7857   9.8277
    12.6116  12.7220  12.7968  13.1377  13.4218  13.6514  13.8816  14.2680
    14.4172  14.6567  14.7171  14.7797  16.0054  16.1244  16.8807  17.0431
    17.2521  17.3753  17.4067  17.5410  17.6796

     occupation numbers 
     1.0000   1.0000   1.0000   1.0000   1.0000   1.0000   1.0000   1.0000
     1.0000   1.0000   1.0000   1.0000   1.0000   1.0000   1.0000   1.0000
     1.0000   1.0000   1.0000   1.0000   1.0000   1.0000   1.0000   1.0000
     1.0000   1.0000   1.0000   1.0000   1.0000   1.0000   1.0000   1.0000
     1.0000   1.0000   1.0000   1.0000   1.0000   1.0000   1.0000   1.0000
     1.0000   1.0000   1.0000   1.0000   1.0000   1.0000   1.0000   1.0000
     1.0000   1.0000   1.0000   1.0000   1.0000   1.0000   1.0000   1.0000
     1.0000   1.0000   1.0000   1.0000   1.0000   1.0000   1.0000   1.0000
     1.0000   1.0000   1.0000   1.0000   1.0000   1.0000   1.0000   1.0000
     1.0000   1.0000   1.0000   1.0000   1.0000   1.0000   1.0000   1.0000
     1.0000   1.0000   1.0000   1.0000   0.9906   0.0014   0.0000   0.0000
     0.0000   0.0000   0.0000   0.0000   0.0000   0.0000   0.0000   0.0000
     0.0000   0.0000   0.0000   0.0000   0.0000

          k = 0.2000 0.4000 0.0000 ( 10091 PWs)   bands (ev):

   -49.0085 -49.0077 -49.0073 -49.0064 -23.3149 -23.3100 -23.3090 -23.3006
   -23.2909 -23.2820 -23.2554 -23.2520 -23.2362 -23.2338 -23.2332 -23.2308
   -21.9907 -21.9815 -21.9773 -21.9719  -6.8440  -6.7726  -6.5020  -6.1127
    -6.0427  -5.9330  -5.8431  -5.8085  -5.7345  -5.6629  -5.5975  -5.5972
    -4.1106  -4.0524  -4.0482  -4.0162  -3.9837  -3.8689  -3.8162  -3.7137
    -3.6962  -3.6805  -3.6591  -3.5812   5.2878   5.3067   5.4908   5.5734
     5.7930   5.9088   6.1408   6.2084   6.4561   6.7613   6.7690   7.0279
     7.1238   7.1949   7.2869   7.3248   7.4754   7.6402   7.6645   7.7331
     8.0457   8.3635   8.3641   8.4311   8.7130   8.8828   8.9276   8.9346
     9.0301   9.2201   9.2842   9.3557   9.3636   9.3806   9.7866  10.0075
    12.0861  12.7871  13.4250  13.4435  13.5717  14.0239  14.0507  14.2936
    14.3683  14.3987  14.5586  14.8138  15.8453  16.1823  16.8443  16.8848
    17.1235  17.3508  17.5089  17.5643  17.9572

     occupation numbers 
     1.0000   1.0000   1.0000   1.0000   1.0000   1.0000   1.0000   1.0000
     1.0000   1.0000   1.0000   1.0000   1.0000   1.0000   1.0000   1.0000
     1.0000   1.0000   1.0000   1.0000   1.0000   1.0000   1.0000   1.0000
     1.0000   1.0000   1.0000   1.0000   1.0000   1.0000   1.0000   1.0000
     1.0000   1.0000   1.0000   1.0000   1.0000   1.0000   1.0000   1.0000
     1.0000   1.0000   1.0000   1.0000   1.0000   1.0000   1.0000   1.0000
     1.0000   1.0000   1.0000   1.0000   1.0000   1.0000   1.0000   1.0000
     1.0000   1.0000   1.0000   1.0000   1.0000   1.0000   1.0000   1.0000
     1.0000   1.0000   1.0000   1.0000   1.0000   1.0000   1.0000   1.0000
     1.0000   1.0000   1.0000   1.0000   1.0000   1.0000   1.0000   1.0000
     1.0000   1.0000   0.9890   0.9731   0.0635   0.0000   0.0000   0.0000
     0.0000   0.0000   0.0000   0.0000   0.0000   0.0000   0.0000   0.0000
     0.0000   0.0000   0.0000   0.0000   0.0000

          k = 0.2000 0.4000 0.1414 ( 10093 PWs)   bands (ev):

   -49.0083 -49.0078 -49.0073 -49.0066 -23.3103 -23.3052 -23.3031 -23.3014
   -23.2898 -23.2828 -23.2552 -23.2524 -23.2409 -23.2395 -23.2358 -23.2330
   -21.9894 -21.9806 -21.9786 -21.9728  -6.7949  -6.7125  -6.5123  -6.1802
    -6.0211  -5.9036  -5.8468  -5.8442  -5.7421  -5.6592  -5.6293  -5.6157
    -4.1149  -4.0591  -4.0355  -4.0328  -3.9944  -3.8680  -3.8074  -3.7301
    -3.6999  -3.6584  -3.6582  -3.5972   5.4478   5.4919   5.5413   5.6411
     5.8895   5.9826   6.1375   6.2466   6.4448   6.7415   6.8265   7.0216
     7.1290   7.1434   7.1903   7.3021   7.3514   7.4603   7.4832   7.7005
     7.7702   8.2993   8.4651   8.6328   8.7680   8.7866   8.9746   8.9870
     9.0322   9.1071   9.1779   9.3265   9.3576   9.4132   9.7728   9.9573
    12.3107  12.9277  13.4556  13.4755  13.5614  13.9614  14.0607  14.2382
    14.2768  14.3503  14.4134  14.7207  16.0630  16.5191  16.8214  17.0073
    17.2307  17.4346  17.5846  17.6362  17.9251

     occupation numbers 
     1.0000   1.0000   1.0000   1.0000   1.0000   1.0000   1.0000   1.0000
     1.0000   1.0000   1.0000   1.0000   1.0000   1.0000   1.0000   1.0000
     1.0000   1.0000   1.0000   1.0000   1.0000   1.0000   1.0000   1.0000
     1.0000   1.0000   1.0000   1.0000   1.0000   1.0000   1.0000   1.0000
     1.0000   1.0000   1.0000   1.0000   1.0000   1.0000   1.0000   1.0000
     1.0000   1.0000   1.0000   1.0000   1.0000   1.0000   1.0000   1.0000
     1.0000   1.0000   1.0000   1.0000   1.0000   1.0000   1.0000   1.0000
     1.0000   1.0000   1.0000   1.0000   1.0000   1.0000   1.0000   1.0000
     1.0000   1.0000   1.0000   1.0000   1.0000   1.0000   1.0000   1.0000
     1.0000   1.0000   1.0000   1.0000   1.0000   1.0000   1.0000   1.0000
     1.0000   1.0000   0.9525   0.8831   0.1009   0.0000   0.0000   0.0000
     0.0000   0.0000   0.0000   0.0000   0.0000   0.0000   0.0000   0.0000
     0.0000   0.0000   0.0000   0.0000   0.0000

          k = 0.2000 0.4000 0.2828 ( 10093 PWs)   bands (ev):

   -49.0081 -49.0076 -49.0075 -49.0069 -23.3070 -23.3040 -23.2891 -23.2879
   -23.2835 -23.2820 -23.2614 -23.2588 -23.2542 -23.2529 -23.2350 -23.2339
   -21.9860 -21.9819 -21.9782 -21.9752  -6.6771  -6.5649  -6.5531  -6.3510
    -5.9653  -5.9036  -5.8410  -5.8248  -5.7935  -5.7157  -5.6529  -5.6391
    -4.1175  -4.1012  -4.0287  -4.0143  -3.9818  -3.9137  -3.7821  -3.7542
    -3.6721  -3.6543  -3.6508  -3.6291   5.4949   5.4974   6.0428   6.0771
     6.1215   6.1243   6.3030   6.3358   6.5135   6.6514   6.7681   6.8547
     6.9459   6.9942   7.0329   7.1783   7.2310   7.3124   7.4262   7.4568
     7.6501   7.8341   8.2526   8.3508   8.8602   8.9408   8.9794   9.0575
     9.2079   9.2300   9.2725   9.3029   9.4449   9.4485   9.6836   9.7692
    12.8630  13.3045  13.4606  13.4815  13.6090  13.6717  13.8691  14.0217
    14.2024  14.2660  14.3070  14.4626  16.4957  16.7296  17.2456  17.3567
    17.4934  17.6989  17.7083  17.7544  17.8942

     occupation numbers 
     1.0000   1.0000   1.0000   1.0000   1.0000   1.0000   1.0000   1.0000
     1.0000   1.0000   1.0000   1.0000   1.0000   1.0000   1.0000   1.0000
     1.0000   1.0000   1.0000   1.0000   1.0000   1.0000   1.0000   1.0000
     1.0000   1.0000   1.0000   1.0000   1.0000   1.0000   1.0000   1.0000
     1.0000   1.0000   1.0000   1.0000   1.0000   1.0000   1.0000   1.0000
     1.0000   1.0000   1.0000   1.0000   1.0000   1.0000   1.0000   1.0000
     1.0000   1.0000   1.0000   1.0000   1.0000   1.0000   1.0000   1.0000
     1.0000   1.0000   1.0000   1.0000   1.0000   1.0000   1.0000   1.0000
     1.0000   1.0000   1.0000   1.0000   1.0000   1.0000   1.0000   1.0000
     1.0000   1.0000   1.0000   1.0000   1.0000   1.0000   1.0000   1.0000
     1.0000   1.0000   0.9401   0.8493   0.0108   0.0005   0.0000   0.0000
     0.0000   0.0000   0.0000   0.0000   0.0000   0.0000   0.0000   0.0000
     0.0000   0.0000   0.0000   0.0000   0.0000

          k = 0.4000 0.4000 0.0000 ( 10083 PWs)   bands (ev):

   -49.0083 -49.0080 -49.0070 -49.0066 -23.3210 -23.3146 -23.3108 -23.3086
   -23.3084 -23.3016 -23.2354 -23.2339 -23.2324 -23.2312 -23.2281 -23.2248
   -21.9843 -21.9808 -21.9771 -21.9750  -6.9728  -6.9463  -6.3853  -6.2275
    -6.0398  -5.9967  -5.8325  -5.8181  -5.7984  -5.7596  -5.4535  -5.4271
    -4.0239  -4.0100  -4.0026  -3.9911  -3.9746  -3.9653  -3.7316  -3.6891
    -3.6277  -3.6207  -3.5422  -3.5121   5.1925   5.2532   5.2786   5.3982
     5.5008   5.5178   5.5499   5.5591   7.0000   7.0071   7.0745   7.1993
     7.2994   7.5626   7.6060   7.6078   7.6206   7.6481   7.8201   7.8271
     7.9463   8.1547   8.2848   8.3519   8.5253   8.6998   8.7152   8.8192
     8.9124   8.9756   9.1905   9.2896   9.4556   9.4595  10.0096  10.0673
    11.8302  12.1408  13.9335  13.9377  13.9776  14.0536  14.2405  14.2758
    14.3054  14.4007  14.7647  14.7960  15.6879  15.8356  16.5113  16.8890
    17.2042  17.4560  17.5073  17.6960  17.7751

     occupation numbers 
     1.0000   1.0000   1.0000   1.0000   1.0000   1.0000   1.0000   1.0000
     1.0000   1.0000   1.0000   1.0000   1.0000   1.0000   1.0000   1.0000
     1.0000   1.0000   1.0000   1.0000   1.0000   1.0000   1.0000   1.0000
     1.0000   1.0000   1.0000   1.0000   1.0000   1.0000   1.0000   1.0000
     1.0000   1.0000   1.0000   1.0000   1.0000   1.0000   1.0000   1.0000
     1.0000   1.0000   1.0000   1.0000   1.0000   1.0000   1.0000   1.0000
     1.0000   1.0000   1.0000   1.0000   1.0000   1.0000   1.0000   1.0000
     1.0000   1.0000   1.0000   1.0000   1.0000   1.0000   1.0000   1.0000
     1.0000   1.0000   1.0000   1.0000   1.0000   1.0000   1.0000   1.0000
     1.0000   1.0000   1.0000   1.0000   1.0000   1.0000   1.0000   1.0000
     1.0000   1.0000   0.0000   0.0000   0.0000   0.0000   0.0000   0.0000
     0.0000   0.0000   0.0000   0.0000   0.0000   0.0000   0.0000   0.0000
     0.0000   0.0000   0.0000   0.0000   0.0000

          k = 0.4000 0.4000 0.1414 ( 10091 PWs)   bands (ev):

   -49.0081 -49.0078 -49.0073 -49.0068 -23.3196 -23.3128 -23.3097 -23.3042
   -23.3022 -23.3019 -23.2405 -23.2397 -23.2351 -23.2324 -23.2278 -23.2252
   -21.9836 -21.9802 -21.9778 -21.9756  -6.9176  -6.8875  -6.4412  -6.3197
    -6.0131  -5.9667  -5.8535  -5.8201  -5.7574  -5.7320  -5.4980  -5.4632
    -4.0363  -4.0197  -4.0039  -3.9771  -3.9769  -3.9135  -3.7429  -3.7194
    -3.6284  -3.6195  -3.5539  -3.5300   5.2361   5.2534   5.4424   5.5010
     5.5941   5.6017   5.6189   5.7083   6.8725   7.0011   7.1174   7.1494
     7.1865   7.3014   7.3560   7.4622   7.5831   7.5985   7.5993   7.7752
     8.1767   8.2842   8.5020   8.5940   8.6716   8.7226   8.7279   8.8680
     8.8700   8.9314   8.9923   9.2077   9.2124   9.3064   9.9606  10.0053
    12.1175  12.3694  13.8935  13.9169  13.9596  13.9893  14.1504  14.2815
    14.2929  14.3964  14.6820  14.7566  15.8161  16.0519  16.4842  16.8772
    17.3473  17.5766  17.6117  17.8323  17.8514

     occupation numbers 
     1.0000   1.0000   1.0000   1.0000   1.0000   1.0000   1.0000   1.0000
     1.0000   1.0000   1.0000   1.0000   1.0000   1.0000   1.0000   1.0000
     1.0000   1.0000   1.0000   1.0000   1.0000   1.0000   1.0000   1.0000
     1.0000   1.0000   1.0000   1.0000   1.0000   1.0000   1.0000   1.0000
     1.0000   1.0000   1.0000   1.0000   1.0000   1.0000   1.0000   1.0000
     1.0000   1.0000   1.0000   1.0000   1.0000   1.0000   1.0000   1.0000
     1.0000   1.0000   1.0000   1.0000   1.0000   1.0000   1.0000   1.0000
     1.0000   1.0000   1.0000   1.0000   1.0000   1.0000   1.0000   1.0000
     1.0000   1.0000   1.0000   1.0000   1.0000   1.0000   1.0000   1.0000
     1.0000   1.0000   1.0000   1.0000   1.0000   1.0000   1.0000   1.0000
     1.0000   1.0000   0.0000   0.0000   0.0000   0.0000   0.0000   0.0000
     0.0000   0.0000   0.0000   0.0000   0.0000   0.0000   0.0000   0.0000
     0.0000   0.0000   0.0000   0.0000   0.0000

          k = 0.4000 0.4000 0.2828 ( 10112 PWs)   bands (ev):

   -49.0077 -49.0076 -49.0076 -49.0073 -23.3165 -23.3128 -23.3094 -23.3058
   -23.2843 -23.2831 -23.2601 -23.2592 -23.2344 -23.2334 -23.2270 -23.2261
   -21.9818 -21.9796 -21.9788 -21.9770  -6.7719  -6.7289  -6.5895  -6.5178
    -5.9498  -5.9049  -5.8782  -5.8337  -5.7053  -5.6602  -5.5994  -5.5518
    -4.0474  -4.0296  -4.0056  -3.9894  -3.9047  -3.8596  -3.7813  -3.7734
    -3.6140  -3.6095  -3.5816  -3.5724   5.2520   5.2537   5.4956   5.4999
     5.9149   5.9617   6.2375   6.2595   6.3825   6.4763   7.0156   7.0504
     7.0840   7.1227   7.2474   7.3307   7.4586   7.4902   7.4936   7.6511
     8.2597   8.3837   8.3888   8.5372   8.6343   8.7125   8.8096   8.8279
     8.9080   8.9612   9.0459   9.0638   9.3425   9.3733   9.7664   9.7757
    12.7601  12.9243  13.4460  13.5444  14.0026  14.0297  14.0622  14.2163
    14.3772  14.3972  14.4798  14.5715  16.1501  16.3835  16.5163  16.7965
    17.7076  17.8976  17.9034  18.0308  18.1286

     occupation numbers 
     1.0000   1.0000   1.0000   1.0000   1.0000   1.0000   1.0000   1.0000
     1.0000   1.0000   1.0000   1.0000   1.0000   1.0000   1.0000   1.0000
     1.0000   1.0000   1.0000   1.0000   1.0000   1.0000   1.0000   1.0000
     1.0000   1.0000   1.0000   1.0000   1.0000   1.0000   1.0000   1.0000
     1.0000   1.0000   1.0000   1.0000   1.0000   1.0000   1.0000   1.0000
     1.0000   1.0000   1.0000   1.0000   1.0000   1.0000   1.0000   1.0000
     1.0000   1.0000   1.0000   1.0000   1.0000   1.0000   1.0000   1.0000
     1.0000   1.0000   1.0000   1.0000   1.0000   1.0000   1.0000   1.0000
     1.0000   1.0000   1.0000   1.0000   1.0000   1.0000   1.0000   1.0000
     1.0000   1.0000   1.0000   1.0000   1.0000   1.0000   1.0000   1.0000
     1.0000   1.0000   0.9697   0.2056   0.0000   0.0000   0.0000   0.0000
     0.0000   0.0000   0.0000   0.0000   0.0000   0.0000   0.0000   0.0000
     0.0000   0.0000   0.0000   0.0000   0.0000

          k = 0.2000 0.0000 0.0000 ( 10076 PWs)   bands (ev):

   -49.0092 -49.0078 -49.0073 -49.0056 -23.3207 -23.3085 -23.3070 -23.3046
   -23.2952 -23.2896 -23.2466 -23.2438 -23.2351 -23.2335 -23.2296 -23.2285
   -22.0073 -21.9807 -21.9772 -21.9631  -6.8706  -6.7265  -6.4079  -6.1503
    -6.0889  -5.9804  -5.9074  -5.7790  -5.5694  -5.4915  -5.4755  -5.4513
    -4.1779  -4.1428  -4.1204  -3.9858  -3.9834  -3.9789  -3.9545  -3.9253
    -3.9227  -3.6711  -3.6073  -3.6002   5.2829   5.3019   5.4128   5.4371
     5.5751   5.6700   5.8175   6.1966   6.3369   6.3817   6.9233   7.2646
     7.2798   7.3198   7.4802   7.5009   7.5952   7.5975   7.7271   8.4527
     8.5714   8.6180   8.7100   8.7554   8.7741   8.8811   8.8856   9.0316
     9.1576   9.2786   9.3883   9.5047   9.9143   9.9276   9.9359   9.9722
    11.9943  12.0506  12.2386  12.3492  13.9644  14.0297  14.1111  14.2577
    14.7614  14.8189  15.0045  15.0386  15.8441  15.9960  16.0394  16.0706
    16.3106  16.4677  16.5037  17.3753  17.4398

     occupation numbers 
     1.0000   1.0000   1.0000   1.0000   1.0000   1.0000   1.0000   1.0000
     1.0000   1.0000   1.0000   1.0000   1.0000   1.0000   1.0000   1.0000
     1.0000   1.0000   1.0000   1.0000   1.0000   1.0000   1.0000   1.0000
     1.0000   1.0000   1.0000   1.0000   1.0000   1.0000   1.0000   1.0000
     1.0000   1.0000   1.0000   1.0000   1.0000   1.0000   1.0000   1.0000
     1.0000   1.0000   1.0000   1.0000   1.0000   1.0000   1.0000   1.0000
     1.0000   1.0000   1.0000   1.0000   1.0000   1.0000   1.0000   1.0000
     1.0000   1.0000   1.0000   1.0000   1.0000   1.0000   1.0000   1.0000
     1.0000   1.0000   1.0000   1.0000   1.0000   1.0000   1.0000   1.0000
     1.0000   1.0000   1.0000   1.0000   1.0000   1.0000   1.0000   1.0000
     1.0000   1.0000   1.0000   1.0000   0.0000   0.0000   0.0000   0.0000
     0.0000   0.0000   0.0000   0.0000   0.0000   0.0000   0.0000   0.0000
     0.0000   0.0000   0.0000   0.0000   0.0000

          k = 0.2000 0.0000-0.1414 ( 10060 PWs)   bands (ev):

   -49.0092 -49.0080 -49.0069 -49.0056 -23.3130 -23.3078 -23.3050 -23.2997
   -23.2946 -23.2901 -23.2463 -23.2445 -23.2436 -23.2365 -23.2330 -23.2290
   -22.0047 -21.9832 -21.9758 -21.9644  -6.8444  -6.7134  -6.3366  -6.1328
    -6.0817  -5.9951  -5.8958  -5.7453  -5.6712  -5.5196  -5.5165  -5.4991
    -4.2115  -4.0883  -4.0322  -4.0195  -3.9855  -3.9801  -3.9372  -3.9283
    -3.9054  -3.6935  -3.6501  -3.6282   5.4152   5.4348   5.4644   5.5393
     5.5906   5.7228   5.8686   6.2110   6.3863   6.3963   6.9961   7.0890
     7.1617   7.3386   7.3965   7.5353   7.5858   7.5946   7.6201   8.2719
     8.4880   8.5119   8.5918   8.6753   8.9210   8.9517   8.9843   9.0520
     9.1328   9.1691   9.3428   9.3926   9.8490   9.8697   9.9469   9.9730
    12.1857  12.2636  12.2869  12.3370  13.8844  14.0341  14.0442  14.1759
    14.8052  14.8297  14.8842  14.9904  16.0003  16.0363  16.0712  16.2242
    16.4421  16.6266  16.8269  17.5378  17.6642

     occupation numbers 
     1.0000   1.0000   1.0000   1.0000   1.0000   1.0000   1.0000   1.0000
     1.0000   1.0000   1.0000   1.0000   1.0000   1.0000   1.0000   1.0000
     1.0000   1.0000   1.0000   1.0000   1.0000   1.0000   1.0000   1.0000
     1.0000   1.0000   1.0000   1.0000   1.0000   1.0000   1.0000   1.0000
     1.0000   1.0000   1.0000   1.0000   1.0000   1.0000   1.0000   1.0000
     1.0000   1.0000   1.0000   1.0000   1.0000   1.0000   1.0000   1.0000
     1.0000   1.0000   1.0000   1.0000   1.0000   1.0000   1.0000   1.0000
     1.0000   1.0000   1.0000   1.0000   1.0000   1.0000   1.0000   1.0000
     1.0000   1.0000   1.0000   1.0000   1.0000   1.0000   1.0000   1.0000
     1.0000   1.0000   1.0000   1.0000   1.0000   1.0000   1.0000   1.0000
     1.0000   1.0000   1.0000   1.0000   0.0000   0.0000   0.0000   0.0000
     0.0000   0.0000   0.0000   0.0000   0.0000   0.0000   0.0000   0.0000
     0.0000   0.0000   0.0000   0.0000   0.0000

          k = 0.0000 0.2000-0.1414 ( 10060 PWs)   bands (ev):

   -49.0092 -49.0080 -49.0069 -49.0056 -23.3133 -23.3091 -23.3053 -23.2997
   -23.2930 -23.2897 -23.2482 -23.2449 -23.2432 -23.2365 -23.2314 -23.2286
   -22.0046 -21.9833 -21.9758 -21.9645  -6.8477  -6.7259  -6.3727  -6.1273
    -6.0806  -5.9945  -5.7924  -5.7783  -5.7109  -5.5430  -5.4921  -5.4553
    -4.2216  -4.1836  -4.0444  -4.0258  -4.0064  -3.9885  -3.9112  -3.8682
    -3.8586  -3.7370  -3.6231  -3.6142   5.4192   5.4381   5.4635   5.5390
     5.5646   5.7412   5.8482   6.2204   6.3818   6.3885   6.9650   7.0944
     7.1380   7.3276   7.3682   7.4961   7.5885   7.6114   7.6515   8.2992
     8.4323   8.4809   8.5524   8.6860   8.8927   8.9490   9.0230   9.0661
     9.1985   9.2070   9.3837   9.3961   9.8739   9.9027   9.9716   9.9765
    12.1495  12.2462  12.2876  12.3251  13.8823  14.0433  14.0688  14.1264
    14.7962  14.8170  14.8893  14.9806  16.0533  16.0671  16.0702  16.1994
    16.5212  16.5663  16.8335  17.6037  17.6523

     occupation numbers 
     1.0000   1.0000   1.0000   1.0000   1.0000   1.0000   1.0000   1.0000
     1.0000   1.0000   1.0000   1.0000   1.0000   1.0000   1.0000   1.0000
     1.0000   1.0000   1.0000   1.0000   1.0000   1.0000   1.0000   1.0000
     1.0000   1.0000   1.0000   1.0000   1.0000   1.0000   1.0000   1.0000
     1.0000   1.0000   1.0000   1.0000   1.0000   1.0000   1.0000   1.0000
     1.0000   1.0000   1.0000   1.0000   1.0000   1.0000   1.0000   1.0000
     1.0000   1.0000   1.0000   1.0000   1.0000   1.0000   1.0000   1.0000
     1.0000   1.0000   1.0000   1.0000   1.0000   1.0000   1.0000   1.0000
     1.0000   1.0000   1.0000   1.0000   1.0000   1.0000   1.0000   1.0000
     1.0000   1.0000   1.0000   1.0000   1.0000   1.0000   1.0000   1.0000
     1.0000   1.0000   1.0000   1.0000   0.0000   0.0000   0.0000   0.0000
     0.0000   0.0000   0.0000   0.0000   0.0000   0.0000   0.0000   0.0000
     0.0000   0.0000   0.0000   0.0000   0.0000

          k = 0.2000 0.0000-0.2828 ( 10071 PWs)   bands (ev):

   -49.0088 -49.0083 -49.0066 -49.0061 -23.3074 -23.3060 -23.2932 -23.2916
   -23.2914 -23.2807 -23.2652 -23.2572 -23.2453 -23.2440 -23.2317 -23.2302
   -21.9979 -21.9897 -21.9723 -21.9680  -6.7800  -6.7206  -6.1487  -6.0638
    -6.0424  -6.0209  -5.9133  -5.8866  -5.6634  -5.6295  -5.6009  -5.5665
    -4.1911  -4.1105  -4.0049  -3.9707  -3.9662  -3.9604  -3.9119  -3.8812
    -3.8086  -3.7664  -3.7653  -3.7049   5.4213   5.4287   5.6133   5.6171
     5.8759   6.0534   6.1574   6.3567   6.5623   6.6040   6.7605   6.8587
     6.9210   7.1846   7.3321   7.3984   7.5166   7.5506   7.7328   7.7846
     8.0800   8.1179   8.6512   8.7735   8.9031   9.0378   9.1062   9.1268
     9.2011   9.2180   9.3200   9.3724   9.6480   9.6739   9.9699   9.9743
    12.2656  12.3055  12.7993  12.8141  13.4250  13.4951  14.2430  14.3632
    14.5607  14.6308  14.8708  14.9347  16.0126  16.0267  16.6504  16.7146
    16.8053  17.1632  17.1888  17.2566  17.3839

     occupation numbers 
     1.0000   1.0000   1.0000   1.0000   1.0000   1.0000   1.0000   1.0000
     1.0000   1.0000   1.0000   1.0000   1.0000   1.0000   1.0000   1.0000
     1.0000   1.0000   1.0000   1.0000   1.0000   1.0000   1.0000   1.0000
     1.0000   1.0000   1.0000   1.0000   1.0000   1.0000   1.0000   1.0000
     1.0000   1.0000   1.0000   1.0000   1.0000   1.0000   1.0000   1.0000
     1.0000   1.0000   1.0000   1.0000   1.0000   1.0000   1.0000   1.0000
     1.0000   1.0000   1.0000   1.0000   1.0000   1.0000   1.0000   1.0000
     1.0000   1.0000   1.0000   1.0000   1.0000   1.0000   1.0000   1.0000
     1.0000   1.0000   1.0000   1.0000   1.0000   1.0000   1.0000   1.0000
     1.0000   1.0000   1.0000   1.0000   1.0000   1.0000   1.0000   1.0000
     1.0000   1.0000   1.0000   1.0000   0.9890   0.7427   0.0000   0.0000
     0.0000   0.0000   0.0000   0.0000   0.0000   0.0000   0.0000   0.0000
     0.0000   0.0000   0.0000   0.0000   0.0000

          k = 0.0000 0.2000-0.2828 ( 10071 PWs)   bands (ev):

   -49.0088 -49.0083 -49.0066 -49.0061 -23.3086 -23.3068 -23.2920 -23.2914
   -23.2908 -23.2807 -23.2652 -23.2573 -23.2464 -23.2447 -23.2305 -23.2295
   -21.9979 -21.9898 -21.9723 -21.9680  -6.7852  -6.7294  -6.1933  -6.0652
    -6.0595  -6.0287  -5.8838  -5.8281  -5.6954  -5.6131  -5.5713  -5.5546
    -4.1884  -4.1103  -4.0773  -4.0470  -3.9694  -3.9393  -3.8994  -3.8462
    -3.8101  -3.7864  -3.7019  -3.6873   5.4250   5.4322   5.5908   5.6022
     5.8883   6.0529   6.1576   6.3617   6.5624   6.5901   6.7679   6.8323
     6.9121   7.1256   7.3893   7.4483   7.4643   7.5633   7.6992   7.7745
     8.0730   8.0851   8.5937   8.6946   8.9288   9.0415   9.1456   9.2016
     9.2162   9.2831   9.3055   9.4273   9.6580   9.7207   9.9750   9.9773
    12.2362  12.2869  12.7707  12.8310  13.4166  13.4968  14.2565  14.3283
    14.5604  14.6129  14.8615  14.9260  16.0688  16.0689  16.6413  16.6842
    16.8879  17.0945  17.1753  17.3416  17.3670

     occupation numbers 
     1.0000   1.0000   1.0000   1.0000   1.0000   1.0000   1.0000   1.0000
     1.0000   1.0000   1.0000   1.0000   1.0000   1.0000   1.0000   1.0000
     1.0000   1.0000   1.0000   1.0000   1.0000   1.0000   1.0000   1.0000
     1.0000   1.0000   1.0000   1.0000   1.0000   1.0000   1.0000   1.0000
     1.0000   1.0000   1.0000   1.0000   1.0000   1.0000   1.0000   1.0000
     1.0000   1.0000   1.0000   1.0000   1.0000   1.0000   1.0000   1.0000
     1.0000   1.0000   1.0000   1.0000   1.0000   1.0000   1.0000   1.0000
     1.0000   1.0000   1.0000   1.0000   1.0000   1.0000   1.0000   1.0000
     1.0000   1.0000   1.0000   1.0000   1.0000   1.0000   1.0000   1.0000
     1.0000   1.0000   1.0000   1.0000   1.0000   1.0000   1.0000   1.0000
     1.0000   1.0000   1.0000   1.0000   0.9927   0.7273   0.0000   0.0000
     0.0000   0.0000   0.0000   0.0000   0.0000   0.0000   0.0000   0.0000
     0.0000   0.0000   0.0000   0.0000   0.0000

          k = 0.4000 0.0000 0.0000 ( 10072 PWs)   bands (ev):

   -49.0085 -49.0078 -49.0071 -49.0064 -23.3153 -23.3101 -23.2895 -23.2859
   -23.2790 -23.2713 -23.2658 -23.2625 -23.2556 -23.2479 -23.2334 -23.2314
   -21.9941 -21.9827 -21.9768 -21.9701  -6.6881  -6.5882  -6.5318  -6.0527
    -6.0253  -6.0090  -5.9384  -5.8517  -5.8317  -5.6390  -5.6119  -5.5942
    -4.0910  -4.0255  -3.9905  -3.9872  -3.9461  -3.9381  -3.8562  -3.8005
    -3.7807  -3.7334  -3.7092  -3.6790   5.3062   5.3122   6.0874   6.0901
     6.1093   6.1208   6.3204   6.3995   6.4657   6.4961   6.8386   6.8407
     6.8487   6.9581   6.9611   6.9981   7.4558   7.5685   7.6171   7.6594
     7.8276   8.1862   8.4488   8.6777   8.8163   8.8259   8.9641   9.1412
     9.1425   9.1727   9.2483   9.3495   9.5154   9.6518   9.6834   9.7356
    12.6338  12.8230  13.1651  13.3010  13.3952  13.6379  14.0246  14.2962
    14.3056  14.4013  14.5619  14.7114  16.0412  16.3091  16.8355  17.0332
    17.2515  17.3269  17.5468  17.6546  17.9272

     occupation numbers 
     1.0000   1.0000   1.0000   1.0000   1.0000   1.0000   1.0000   1.0000
     1.0000   1.0000   1.0000   1.0000   1.0000   1.0000   1.0000   1.0000
     1.0000   1.0000   1.0000   1.0000   1.0000   1.0000   1.0000   1.0000
     1.0000   1.0000   1.0000   1.0000   1.0000   1.0000   1.0000   1.0000
     1.0000   1.0000   1.0000   1.0000   1.0000   1.0000   1.0000   1.0000
     1.0000   1.0000   1.0000   1.0000   1.0000   1.0000   1.0000   1.0000
     1.0000   1.0000   1.0000   1.0000   1.0000   1.0000   1.0000   1.0000
     1.0000   1.0000   1.0000   1.0000   1.0000   1.0000   1.0000   1.0000
     1.0000   1.0000   1.0000   1.0000   1.0000   1.0000   1.0000   1.0000
     1.0000   1.0000   1.0000   1.0000   1.0000   1.0000   1.0000   1.0000
     1.0000   1.0000   1.0000   1.0000   0.9974   0.0026   0.0000   0.0000
     0.0000   0.0000   0.0000   0.0000   0.0000   0.0000   0.0000   0.0000
     0.0000   0.0000   0.0000   0.0000   0.0000

          k = 0.4000 0.0000-0.1414 ( 10078 PWs)   bands (ev):

   -49.0085 -49.0076 -49.0074 -49.0063 -23.3078 -23.3027 -23.2890 -23.2861
   -23.2782 -23.2719 -23.2654 -23.2630 -23.2550 -23.2487 -23.2412 -23.2389
   -21.9925 -21.9815 -21.9784 -21.9712  -6.6427  -6.5246  -6.5214  -6.0801
    -6.0249  -5.9929  -5.9236  -5.8736  -5.8182  -5.6679  -5.6594  -5.6570
    -4.0640  -4.0318  -4.0221  -3.9954  -3.9858  -3.8950  -3.8853  -3.7719
[...]
     7.7788   8.3029   8.4221   8.6229   8.7792   8.8179   8.9207   8.9305
     9.0342   9.0535   9.2260   9.2827   9.3531   9.3634   9.7429   9.9214
    12.3197  12.9346  13.4762  13.4827  13.5555  13.9717  14.0890  14.2400
    14.2662  14.3680  14.4197  14.7317  16.0494  16.5095  16.8024  17.0406
    17.2279  17.4070  17.6159  17.7092  17.9772

     occupation numbers 
     1.0000   1.0000   1.0000   1.0000   1.0000   1.0000   1.0000   1.0000
     1.0000   1.0000   1.0000   1.0000   1.0000   1.0000   1.0000   1.0000
     1.0000   1.0000   1.0000   1.0000   1.0000   1.0000   1.0000   1.0000
     1.0000   1.0000   1.0000   1.0000   1.0000   1.0000   1.0000   1.0000
     1.0000   1.0000   1.0000   1.0000   1.0000   1.0000   1.0000   1.0000
     1.0000   1.0000   1.0000   1.0000   1.0000   1.0000   1.0000   1.0000
     1.0000   1.0000   1.0000   1.0000   1.0000   1.0000   1.0000   1.0000
     1.0000   1.0000   1.0000   1.0000   1.0000   1.0000   1.0000   1.0000
     1.0000   1.0000   1.0000   1.0000   1.0000   1.0000   1.0000   1.0000
     1.0000   1.0000   1.0000   1.0000   1.0000   1.0000   1.0000   1.0000
     1.0000   1.0000   0.8795   0.8417   0.1307   0.0000   0.0000   0.0000
     0.0000   0.0000   0.0000   0.0000   0.0000   0.0000   0.0000   0.0000
     0.0000   0.0000   0.0000   0.0000   0.0000

          k =-0.4000-0.2000-0.1414 ( 10093 PWs)   bands (ev):

   -49.0083 -49.0078 -49.0073 -49.0066 -23.3096 -23.3052 -23.3030 -23.3012
   -23.2892 -23.2826 -23.2559 -23.2526 -23.2410 -23.2395 -23.2365 -23.2331
   -21.9895 -21.9807 -21.9784 -21.9727  -6.7780  -6.6922  -6.5038  -6.1675
    -6.0329  -5.9401  -5.8390  -5.8104  -5.7151  -5.7126  -5.6623  -5.6514
    -4.0700  -4.0361  -4.0230  -3.9926  -3.9396  -3.8387  -3.8284  -3.7784
    -3.7489  -3.6956  -3.6706  -3.6040   5.4468   5.4975   5.5392   5.6468
     5.9034   6.0011   6.1450   6.2528   6.4464   6.7556   6.8396   7.0384
     7.1433   7.1502   7.2358   7.2974   7.3882   7.4616   7.4706   7.7268
     7.7788   8.3029   8.4221   8.6229   8.7792   8.8179   8.9207   8.9305
     9.0342   9.0535   9.2260   9.2827   9.3531   9.3634   9.7429   9.9214
    12.3197  12.9346  13.4762  13.4827  13.5555  13.9717  14.0890  14.2400
    14.2662  14.3680  14.4197  14.7317  16.0494  16.5095  16.8024  17.0406
    17.2279  17.4070  17.6158  17.7092  17.9777

     occupation numbers 
     1.0000   1.0000   1.0000   1.0000   1.0000   1.0000   1.0000   1.0000
     1.0000   1.0000   1.0000   1.0000   1.0000   1.0000   1.0000   1.0000
     1.0000   1.0000   1.0000   1.0000   1.0000   1.0000   1.0000   1.0000
     1.0000   1.0000   1.0000   1.0000   1.0000   1.0000   1.0000   1.0000
     1.0000   1.0000   1.0000   1.0000   1.0000   1.0000   1.0000   1.0000
     1.0000   1.0000   1.0000   1.0000   1.0000   1.0000   1.0000   1.0000
     1.0000   1.0000   1.0000   1.0000   1.0000   1.0000   1.0000   1.0000
     1.0000   1.0000   1.0000   1.0000   1.0000   1.0000   1.0000   1.0000
     1.0000   1.0000   1.0000   1.0000   1.0000   1.0000   1.0000   1.0000
     1.0000   1.0000   1.0000   1.0000   1.0000   1.0000   1.0000   1.0000
     1.0000   1.0000   0.8795   0.8417   0.1307   0.0000   0.0000   0.0000
     0.0000   0.0000   0.0000   0.0000   0.0000   0.0000   0.0000   0.0000
     0.0000   0.0000   0.0000   0.0000   0.0000

          k =-0.2000 0.4000-0.1414 ( 10093 PWs)   bands (ev):

   -49.0083 -49.0078 -49.0073 -49.0066 -23.3103 -23.3052 -23.3031 -23.3014
   -23.2898 -23.2828 -23.2552 -23.2524 -23.2409 -23.2395 -23.2358 -23.2330
   -21.9894 -21.9806 -21.9786 -21.9728  -6.7949  -6.7125  -6.5123  -6.1802
    -6.0211  -5.9036  -5.8468  -5.8442  -5.7421  -5.6592  -5.6293  -5.6157
    -4.1149  -4.0591  -4.0355  -4.0328  -3.9944  -3.8680  -3.8074  -3.7301
    -3.6999  -3.6584  -3.6582  -3.5972   5.4478   5.4919   5.5413   5.6411
     5.8895   5.9826   6.1375   6.2466   6.4448   6.7415   6.8265   7.0216
     7.1290   7.1434   7.1903   7.3021   7.3514   7.4603   7.4832   7.7005
     7.7702   8.2993   8.4651   8.6328   8.7680   8.7866   8.9746   8.9870
     9.0322   9.1071   9.1779   9.3265   9.3576   9.4132   9.7728   9.9573
    12.3107  12.9277  13.4556  13.4755  13.5614  13.9614  14.0607  14.2382
    14.2768  14.3503  14.4134  14.7207  16.0630  16.5191  16.8214  17.0073
    17.2307  17.4345  17.5846  17.6362  17.9252

     occupation numbers 
     1.0000   1.0000   1.0000   1.0000   1.0000   1.0000   1.0000   1.0000
     1.0000   1.0000   1.0000   1.0000   1.0000   1.0000   1.0000   1.0000
     1.0000   1.0000   1.0000   1.0000   1.0000   1.0000   1.0000   1.0000
     1.0000   1.0000   1.0000   1.0000   1.0000   1.0000   1.0000   1.0000
     1.0000   1.0000   1.0000   1.0000   1.0000   1.0000   1.0000   1.0000
     1.0000   1.0000   1.0000   1.0000   1.0000   1.0000   1.0000   1.0000
     1.0000   1.0000   1.0000   1.0000   1.0000   1.0000   1.0000   1.0000
     1.0000   1.0000   1.0000   1.0000   1.0000   1.0000   1.0000   1.0000
     1.0000   1.0000   1.0000   1.0000   1.0000   1.0000   1.0000   1.0000
     1.0000   1.0000   1.0000   1.0000   1.0000   1.0000   1.0000   1.0000
     1.0000   1.0000   0.9525   0.8831   0.1009   0.0000   0.0000   0.0000
     0.0000   0.0000   0.0000   0.0000   0.0000   0.0000   0.0000   0.0000
     0.0000   0.0000   0.0000   0.0000   0.0000

          k = 0.4000 0.2000-0.2828 ( 10093 PWs)   bands (ev):

   -49.0081 -49.0076 -49.0075 -49.0069 -23.3064 -23.3036 -23.2884 -23.2877
   -23.2834 -23.2822 -23.2615 -23.2589 -23.2547 -23.2533 -23.2356 -23.2343
   -21.9860 -21.9818 -21.9782 -21.9751  -6.6620  -6.5543  -6.5325  -6.3343
    -5.9646  -5.9057  -5.8372  -5.8200  -5.7949  -5.7656  -5.6786  -5.6750
    -4.0946  -4.0863  -4.0282  -4.0087  -3.8738  -3.8278  -3.8173  -3.8009
    -3.7070  -3.6884  -3.6823  -3.6550   5.5003   5.5019   6.0613   6.0971
     6.1190   6.1338   6.2960   6.3466   6.5216   6.6769   6.7779   6.8603
     6.9402   7.0068   7.0342   7.1745   7.2282   7.3120   7.4589   7.4952
     7.6523   7.8304   8.2964   8.3918   8.8247   8.8834   8.9446   9.0455
     9.1630   9.2232   9.2283   9.3383   9.3992   9.4334   9.6491   9.7343
    12.8739  13.3222  13.4641  13.5076  13.6110  13.6721  13.8639  14.0183
    14.2247  14.2855  14.3240  14.4784  16.4729  16.7048  17.2231  17.3558
    17.4852  17.7563  17.8028  17.8248  17.9305

     occupation numbers 
     1.0000   1.0000   1.0000   1.0000   1.0000   1.0000   1.0000   1.0000
     1.0000   1.0000   1.0000   1.0000   1.0000   1.0000   1.0000   1.0000
     1.0000   1.0000   1.0000   1.0000   1.0000   1.0000   1.0000   1.0000
     1.0000   1.0000   1.0000   1.0000   1.0000   1.0000   1.0000   1.0000
     1.0000   1.0000   1.0000   1.0000   1.0000   1.0000   1.0000   1.0000
     1.0000   1.0000   1.0000   1.0000   1.0000   1.0000   1.0000   1.0000
     1.0000   1.0000   1.0000   1.0000   1.0000   1.0000   1.0000   1.0000
     1.0000   1.0000   1.0000   1.0000   1.0000   1.0000   1.0000   1.0000
     1.0000   1.0000   1.0000   1.0000   1.0000   1.0000   1.0000   1.0000
     1.0000   1.0000   1.0000   1.0000   1.0000   1.0000   1.0000   1.0000
     1.0000   0.9999   0.9295   0.6102   0.0098   0.0005   0.0000   0.0000
     0.0000   0.0000   0.0000   0.0000   0.0000   0.0000   0.0000   0.0000
     0.0000   0.0000   0.0000   0.0000   0.0000

          k =-0.4000-0.2000-0.2828 ( 10093 PWs)   bands (ev):

   -49.0081 -49.0076 -49.0075 -49.0069 -23.3064 -23.3036 -23.2884 -23.2877
   -23.2834 -23.2822 -23.2615 -23.2589 -23.2547 -23.2533 -23.2356 -23.2343
   -21.9860 -21.9818 -21.9782 -21.9751  -6.6620  -6.5543  -6.5325  -6.3343
    -5.9646  -5.9057  -5.8372  -5.8200  -5.7949  -5.7656  -5.6786  -5.6750
    -4.0946  -4.0863  -4.0282  -4.0087  -3.8738  -3.8278  -3.8173  -3.8009
    -3.7070  -3.6884  -3.6823  -3.6550   5.5003   5.5019   6.0613   6.0971
     6.1190   6.1338   6.2960   6.3466   6.5216   6.6769   6.7779   6.8603
     6.9402   7.0068   7.0342   7.1745   7.2282   7.3120   7.4589   7.4952
     7.6523   7.8304   8.2964   8.3918   8.8247   8.8834   8.9446   9.0455
     9.1630   9.2232   9.2283   9.3383   9.3992   9.4334   9.6491   9.7343
    12.8739  13.3222  13.4641  13.5076  13.6110  13.6721  13.8639  14.0183
    14.2247  14.2855  14.3240  14.4784  16.4729  16.7048  17.2231  17.3558
    17.4852  17.7564  17.8028  17.8246  17.9288

     occupation numbers 
     1.0000   1.0000   1.0000   1.0000   1.0000   1.0000   1.0000   1.0000
     1.0000   1.0000   1.0000   1.0000   1.0000   1.0000   1.0000   1.0000
     1.0000   1.0000   1.0000   1.0000   1.0000   1.0000   1.0000   1.0000
     1.0000   1.0000   1.0000   1.0000   1.0000   1.0000   1.0000   1.0000
     1.0000   1.0000   1.0000   1.0000   1.0000   1.0000   1.0000   1.0000
     1.0000   1.0000   1.0000   1.0000   1.0000   1.0000   1.0000   1.0000
     1.0000   1.0000   1.0000   1.0000   1.0000   1.0000   1.0000   1.0000
     1.0000   1.0000   1.0000   1.0000   1.0000   1.0000   1.0000   1.0000
     1.0000   1.0000   1.0000   1.0000   1.0000   1.0000   1.0000   1.0000
     1.0000   1.0000   1.0000   1.0000   1.0000   1.0000   1.0000   1.0000
     1.0000   0.9999   0.9295   0.6102   0.0098   0.0005   0.0000   0.0000
     0.0000   0.0000   0.0000   0.0000   0.0000   0.0000   0.0000   0.0000
     0.0000   0.0000   0.0000   0.0000   0.0000

          k =-0.2000 0.4000-0.2828 ( 10093 PWs)   bands (ev):

   -49.0081 -49.0076 -49.0075 -49.0069 -23.3070 -23.3040 -23.2891 -23.2879
   -23.2835 -23.2820 -23.2614 -23.2588 -23.2542 -23.2529 -23.2350 -23.2339
   -21.9860 -21.9819 -21.9782 -21.9752  -6.6771  -6.5649  -6.5531  -6.3510
    -5.9653  -5.9036  -5.8410  -5.8248  -5.7935  -5.7157  -5.6529  -5.6391
    -4.1175  -4.1012  -4.0287  -4.0143  -3.9818  -3.9137  -3.7821  -3.7542
    -3.6721  -3.6543  -3.6508  -3.6291   5.4949   5.4974   6.0428   6.0771
     6.1215   6.1243   6.3030   6.3358   6.5135   6.6514   6.7681   6.8547
     6.9459   6.9942   7.0329   7.1783   7.2310   7.3124   7.4262   7.4568
     7.6501   7.8341   8.2526   8.3508   8.8602   8.9408   8.9794   9.0575
     9.2079   9.2300   9.2725   9.3029   9.4449   9.4485   9.6836   9.7692
    12.8630  13.3045  13.4606  13.4815  13.6090  13.6717  13.8691  14.0217
    14.2024  14.2660  14.3070  14.4626  16.4957  16.7296  17.2456  17.3568
    17.4934  17.6989  17.7081  17.7542  17.8907

     occupation numbers 
     1.0000   1.0000   1.0000   1.0000   1.0000   1.0000   1.0000   1.0000
     1.0000   1.0000   1.0000   1.0000   1.0000   1.0000   1.0000   1.0000
     1.0000   1.0000   1.0000   1.0000   1.0000   1.0000   1.0000   1.0000
     1.0000   1.0000   1.0000   1.0000   1.0000   1.0000   1.0000   1.0000
     1.0000   1.0000   1.0000   1.0000   1.0000   1.0000   1.0000   1.0000
     1.0000   1.0000   1.0000   1.0000   1.0000   1.0000   1.0000   1.0000
     1.0000   1.0000   1.0000   1.0000   1.0000   1.0000   1.0000   1.0000
     1.0000   1.0000   1.0000   1.0000   1.0000   1.0000   1.0000   1.0000
     1.0000   1.0000   1.0000   1.0000   1.0000   1.0000   1.0000   1.0000
     1.0000   1.0000   1.0000   1.0000   1.0000   1.0000   1.0000   1.0000
     1.0000   1.0000   0.9401   0.8493   0.0108   0.0005   0.0000   0.0000
     0.0000   0.0000   0.0000   0.0000   0.0000   0.0000   0.0000   0.0000
     0.0000   0.0000   0.0000   0.0000   0.0000

          k = 0.4000 0.4000-0.1414 ( 10091 PWs)   bands (ev):

   -49.0081 -49.0078 -49.0073 -49.0068 -23.3196 -23.3128 -23.3097 -23.3042
   -23.3022 -23.3019 -23.2405 -23.2397 -23.2351 -23.2324 -23.2278 -23.2252
   -21.9836 -21.9802 -21.9778 -21.9756  -6.9176  -6.8875  -6.4412  -6.3197
    -6.0131  -5.9667  -5.8535  -5.8201  -5.7574  -5.7320  -5.4980  -5.4632
    -4.0363  -4.0197  -4.0039  -3.9771  -3.9769  -3.9135  -3.7429  -3.7194
    -3.6284  -3.6195  -3.5539  -3.5300   5.2361   5.2534   5.4424   5.5010
     5.5941   5.6017   5.6189   5.7083   6.8725   7.0011   7.1174   7.1494
     7.1865   7.3014   7.3560   7.4622   7.5831   7.5985   7.5993   7.7752
     8.1767   8.2842   8.5020   8.5940   8.6716   8.7226   8.7279   8.8680
     8.8700   8.9314   8.9923   9.2077   9.2124   9.3064   9.9606  10.0053
    12.1175  12.3694  13.8935  13.9169  13.9596  13.9893  14.1504  14.2815
    14.2929  14.3964  14.6820  14.7566  15.8161  16.0519  16.4842  16.8772
    17.3473  17.5766  17.6117  17.8323  17.8515

     occupation numbers 
     1.0000   1.0000   1.0000   1.0000   1.0000   1.0000   1.0000   1.0000
     1.0000   1.0000   1.0000   1.0000   1.0000   1.0000   1.0000   1.0000
     1.0000   1.0000   1.0000   1.0000   1.0000   1.0000   1.0000   1.0000
     1.0000   1.0000   1.0000   1.0000   1.0000   1.0000   1.0000   1.0000
     1.0000   1.0000   1.0000   1.0000   1.0000   1.0000   1.0000   1.0000
     1.0000   1.0000   1.0000   1.0000   1.0000   1.0000   1.0000   1.0000
     1.0000   1.0000   1.0000   1.0000   1.0000   1.0000   1.0000   1.0000
     1.0000   1.0000   1.0000   1.0000   1.0000   1.0000   1.0000   1.0000
     1.0000   1.0000   1.0000   1.0000   1.0000   1.0000   1.0000   1.0000
     1.0000   1.0000   1.0000   1.0000   1.0000   1.0000   1.0000   1.0000
     1.0000   1.0000   0.0000   0.0000   0.0000   0.0000   0.0000   0.0000
     0.0000   0.0000   0.0000   0.0000   0.0000   0.0000   0.0000   0.0000
     0.0000   0.0000   0.0000   0.0000   0.0000

          k = 0.4000 0.4000-0.2828 ( 10112 PWs)   bands (ev):

   -49.0077 -49.0076 -49.0076 -49.0073 -23.3165 -23.3128 -23.3094 -23.3058
   -23.2843 -23.2831 -23.2601 -23.2592 -23.2344 -23.2334 -23.2270 -23.2261
   -21.9818 -21.9796 -21.9788 -21.9770  -6.7719  -6.7289  -6.5895  -6.5178
    -5.9498  -5.9049  -5.8782  -5.8337  -5.7053  -5.6602  -5.5994  -5.5518
    -4.0474  -4.0296  -4.0056  -3.9894  -3.9047  -3.8596  -3.7813  -3.7734
    -3.6140  -3.6095  -3.5816  -3.5724   5.2520   5.2537   5.4956   5.4999
     5.9149   5.9617   6.2375   6.2595   6.3825   6.4763   7.0156   7.0504
     7.0840   7.1227   7.2474   7.3307   7.4586   7.4902   7.4936   7.6511
     8.2597   8.3837   8.3888   8.5372   8.6343   8.7125   8.8096   8.8279
     8.9080   8.9612   9.0459   9.0638   9.3425   9.3733   9.7664   9.7757
    12.7601  12.9243  13.4460  13.5444  14.0026  14.0297  14.0622  14.2163
    14.3772  14.3972  14.4798  14.5715  16.1501  16.3835  16.5163  16.7965
    17.7076  17.8976  17.9035  18.0309  18.1272

     occupation numbers 
     1.0000   1.0000   1.0000   1.0000   1.0000   1.0000   1.0000   1.0000
     1.0000   1.0000   1.0000   1.0000   1.0000   1.0000   1.0000   1.0000
     1.0000   1.0000   1.0000   1.0000   1.0000   1.0000   1.0000   1.0000
     1.0000   1.0000   1.0000   1.0000   1.0000   1.0000   1.0000   1.0000
     1.0000   1.0000   1.0000   1.0000   1.0000   1.0000   1.0000   1.0000
     1.0000   1.0000   1.0000   1.0000   1.0000   1.0000   1.0000   1.0000
     1.0000   1.0000   1.0000   1.0000   1.0000   1.0000   1.0000   1.0000
     1.0000   1.0000   1.0000   1.0000   1.0000   1.0000   1.0000   1.0000
     1.0000   1.0000   1.0000   1.0000   1.0000   1.0000   1.0000   1.0000
     1.0000   1.0000   1.0000   1.0000   1.0000   1.0000   1.0000   1.0000
     1.0000   1.0000   0.9697   0.2056   0.0000   0.0000   0.0000   0.0000
     0.0000   0.0000   0.0000   0.0000   0.0000   0.0000   0.0000   0.0000
     0.0000   0.0000   0.0000   0.0000   0.0000

     the Fermi energy is    13.5168 ev

!    total energy              =   -2923.82243386 Ry
     total all-electron energy =    -59563.349135 Ry
     estimated scf accuracy    <          3.4E-10 Ry
     smearing contrib. (-TS)   =      -0.00133438 Ry
     internal energy E=F+TS    =   -2923.82109949 Ry

     The total energy is F=E-TS. E is the sum of the following terms:
     one-electron contribution =    -273.73562987 Ry
     hartree contribution      =     245.89292341 Ry
     xc contribution           =    -239.26116534 Ry
     ewald contribution        =    -938.18015451 Ry
     one-center paw contrib.   =   -1718.53707318 Ry
      -> PAW hartree energy AE =      35.10042917 Ry
      -> PAW hartree energy PS =     -34.90045478 Ry
      -> PAW xc energy AE      =    -201.61535855 Ry
      -> PAW xc energy PS      =      17.14509871 Ry
      -> total E_H with PAW    =     246.09289779 Ry
      -> total E_XC with PAW   =    -423.73142517 Ry

     convergence has been achieved in  22 iterations

     Writing all to output data dir ./out/smo.save/ :
     XML data file, charge density, pseudopotentials, collected wavefunctions

     init_run     :      2.36s CPU      2.55s WALL (       1 calls)
     electrons    :     62.55s CPU     71.22s WALL (       1 calls)

     Called by init_run:
     wfcinit      :      0.83s CPU      0.89s WALL (       1 calls)
     wfcinit:atom :      0.01s CPU      0.01s WALL (       1 calls)
     wfcinit:wfcr :      0.77s CPU      0.79s WALL (       1 calls)
     potinit      :      0.32s CPU      0.38s WALL (       1 calls)
     hinit0       :      1.08s CPU      1.11s WALL (       1 calls)

     Called by electrons:
     c_bands      :     48.42s CPU     55.22s WALL (      22 calls)
     sum_band     :      8.57s CPU      9.20s WALL (      22 calls)
     v_of_rho     :      2.11s CPU      2.15s WALL (      23 calls)
     v_h          :      0.91s CPU      0.93s WALL (      23 calls)
     v_xc         :      1.19s CPU      1.22s WALL (      23 calls)
     newd         :      0.80s CPU      0.99s WALL (      23 calls)
     PAW_pot      :      0.62s CPU      1.00s WALL (      23 calls)
     mix_rho      :      0.61s CPU      0.65s WALL (      22 calls)

     Called by c_bands:
     init_us_2    :      0.96s CPU      0.98s WALL (      45 calls)
     cegterg      :     45.37s CPU     45.83s WALL (      22 calls)

     Called by sum_band:
     sum_band:wei :      0.04s CPU      0.08s WALL (      22 calls)
     sum_band:loo :      5.99s CPU      6.03s WALL (      22 calls)
     sum_band:buf :      0.00s CPU      0.00s WALL (      22 calls)
     sum_band:ini :      0.49s CPU      0.51s WALL (      22 calls)
     sum_band:cal :      1.26s CPU      1.26s WALL (      22 calls)
     sum_band:bec :      0.00s CPU      0.00s WALL (      22 calls)
     addusdens    :      0.81s CPU      1.06s WALL (      22 calls)
                                        0.00s GPU  (      22 calls)
     addusd:skk   :      0.00s CPU      0.01s WALL (      66 calls)
                                        0.00s GPU  (      66 calls)

     Called by *egterg:
     cdiaghg      :      1.56s CPU      1.56s WALL (     136 calls)
     cegterg:over :      3.44s CPU      3.45s WALL (     114 calls)
     cegterg:upda :      2.46s CPU      2.48s WALL (     114 calls)
     cegterg:last :      5.03s CPU      5.07s WALL (      45 calls)
     h_psi        :     28.36s CPU     28.63s WALL (     137 calls)
     s_psi        :      3.69s CPU      3.71s WALL (     137 calls)
     g_psi        :      0.08s CPU      0.09s WALL (     114 calls)

     Called by h_psi:
     h_psi:calbec :      3.45s CPU      3.46s WALL (     137 calls)
     vloc_psi     :     20.72s CPU     20.85s WALL (     137 calls)
                                        0.00s GPU  (     137 calls)
     add_vuspsi   :      4.07s CPU      4.09s WALL (     137 calls)

     General routines
     calbec       :      4.70s CPU      4.72s WALL (     159 calls)
     fft          :      1.41s CPU      1.42s WALL (     136 calls)
     ffts         :      0.09s CPU      0.10s WALL (      45 calls)
     fftw         :     22.82s CPU     22.96s WALL (   13192 calls)
     interpolate  :      0.58s CPU      0.59s WALL (      23 calls)

     Parallel routines

     PAW routines
     PAW_pot      :      0.62s CPU      1.00s WALL (      23 calls)
     PAW_symme    :      0.02s CPU      0.03s WALL (      45 calls)

     PWSCF        :   1m 5.26s CPU   1m16.65s WALL


   This run was terminated on:  20:36:10  29Nov2025            

=------------------------------------------------------------------------------=
   JOB DONE.
=------------------------------------------------------------------------------=
