
     Program PWSCF v.7.5 starts on 29Nov2025 at 20:38:24 
        Git branch: develop
        Last git commit: 70e07caa2a5fab3dd9374bc01196f67e923fc5ea
        Last git commit date: Mon Aug 18 10:06:47 2025 +0000
        Last git commit subject: Merge branch 'stressed-by-optional-variables' into

     This program is part of the open-source Quantum ESPRESSO suite
     for quantum simulation of materials; please cite
         "P. Giannozzi et al., J. Phys.:Condens. Matter 21 395502 (2009);
         "P. Giannozzi et al., J. Phys.:Condens. Matter 29 465901 (2017);
         "P. Giannozzi et al., J. Chem. Phys. 152 154105 (2020);
          URL http://www.quantum-espresso.org", 
     in publications or presentations arising from this work. More details at
     http://www.quantum-espresso.org/quote

     Parallel version (MPI), running on   128 processors

     MPI processes distributed on     1 nodes
     965913 MiB available memory on the printing compute node when the environment starts

     Waiting for input...
     Reading input from standard input

     Current dimensions of program PWSCF are:
     Max number of different atomic species (ntypx) = 10
     Max number of k-points (npk) =  40000
     Max angular momentum in pseudopotentials (lmaxx) =  4
     file Sr.pz-spn-kjpaw_psl.1.0.0.UPF: wavefunction(s)  4P renormalized
     file Mo.pz-spn-kjpaw_psl.1.0.0.UPF: wavefunction(s)  4S 4D renormalized
     file O.pz-n-kjpaw_psl.1.0.0.UPF: wavefunction(s)  2S 2P renormalized

     Atomic positions and unit cell read from directory:
     ./out/smo.save/

     Found identity + (  0.5000 -0.5000 -0.5000) symmetry
     This is a supercell, fractional translations are disabled

     K-points division:     npool     =     128
     Subspace diagonalization in iterative solution of the eigenvalue problem:
     a serial algorithm will be used

     Message from routine divide_et_impera:
     suboptimal parallelization: some nodes have no k-points

     G-vector sticks info
     --------------------
     sticks:   dense  smooth     PW     G-vecs:    dense   smooth      PW
     Sum        3577    1789    553               228191    80831   13637

     Using Slab Decomposition



     bravais-lattice index     =            0
     lattice parameter (alat)  =      10.6088  a.u.
     unit-cell volume          =    1688.5722 (a.u.)^3
     number of atoms/cell      =           20
     number of atomic types    =            3
     number of electrons       =       168.00
     number of Kohn-Sham states=          101
     kinetic-energy cutoff     =      50.0000  Ry
     charge density cutoff     =     400.0000  Ry
     Exchange-correlation= SLA  PZ   NOGX NOGC
                           (   1   1   0   0   0   0   0)

     celldm(1)=  10.608847  celldm(2)=   0.000000  celldm(3)=   0.000000
     celldm(4)=   0.000000  celldm(5)=   0.000000  celldm(6)=   0.000000

     crystal axes: (cart. coord. in units of alat)
               a(1) = (   1.000000   0.000000   0.000000 )  
               a(2) = (   0.000000   1.000000   0.000000 )  
               a(3) = (   0.000000   0.000000   1.414214 )  

     reciprocal axes: (cart. coord. in units 2 pi/alat)
               b(1) = (  1.000000  0.000000  0.000000 )  
               b(2) = (  0.000000  1.000000  0.000000 )  
               b(3) = (  0.000000  0.000000  0.707107 )  


     PseudoPot. # 1 for Sr read from file:
     ../../../pseudo/Sr.pz-spn-kjpaw_psl.1.0.0.UPF
     MD5 check sum: 14b1f655f5497b386c4f305353cf4fd4
     Pseudo is Projector augmented-wave + core cor, Zval = 10.0
     Generated using 'atomic' code by A. Dal Corso  v.7.3
     Shape of augmentation charge: PSQ
     Using radial grid of 1221 points,  6 beta functions with: 
                l(1) =   0
                l(2) =   0
                l(3) =   1
                l(4) =   1
                l(5) =   2
                l(6) =   2
     Q(r) pseudized with 0 coefficients 


     PseudoPot. # 2 for Mo read from file:
     ../../../pseudo/Mo.pz-spn-kjpaw_psl.1.0.0.UPF
     MD5 check sum: 2e12aff744a4785a34e7548d4bec1d21
     Pseudo is Projector augmented-wave + core cor, Zval = 14.0
     Generated using 'atomic' code by A. Dal Corso  v.7.3
     Shape of augmentation charge: PSQ
     Using radial grid of 1229 points,  6 beta functions with: 
                l(1) =   0
                l(2) =   0
                l(3) =   1
                l(4) =   1
                l(5) =   2
                l(6) =   2
     Q(r) pseudized with 0 coefficients 


     PseudoPot. # 3 for O  read from file:
     ../../../pseudo/O.pz-n-kjpaw_psl.1.0.0.UPF
     MD5 check sum: 71a951e35f67dc87891058fc5642ed8f
     Pseudo is Projector augmented-wave + core cor, Zval =  6.0
     Generated using 'atomic' code by A. Dal Corso  v.7.3
     Shape of augmentation charge: PSQ
     Using radial grid of 1095 points,  4 beta functions with: 
                l(1) =   0
                l(2) =   0
                l(3) =   1
                l(4) =   1
     Q(r) pseudized with 0 coefficients 


     atomic species   valence    mass     pseudopotential
     Sr               10.00    87.62000     Sr( 1.00)
     Mo               14.00    95.95000     Mo( 1.00)
     O                 6.00    15.99900     O ( 1.00)

     No symmetry found


                                    s                        frac. trans.

      isym =  1     identity                                     

 cryst.   s( 1) = (     1          0          0      )
                  (     0          1          0      )
                  (     0          0          1      )

 cart.    s( 1) = (  1.0000000  0.0000000  0.0000000 )
                  (  0.0000000  1.0000000  0.0000000 )
                  (  0.0000000  0.0000000  1.0000000 )


   Cartesian axes

     site n.     atom                  positions (alat units)
         1        Sr     tau(   1) = (   0.0000000   0.5000000   0.3535535  )
         2        Sr     tau(   2) = (   0.0000000   0.5000000   1.0606604  )
         3        Sr     tau(   3) = (   0.5000000   0.0000000   1.0606604  )
         4        Sr     tau(   4) = (   0.5000000   0.0000000   0.3535535  )
         5        Mo     tau(   5) = (   0.0000000   0.0000000   0.0000000  )
         6        Mo     tau(   6) = (   0.0000000   0.0000000   0.7071069  )
         7        Mo     tau(   7) = (   0.5000000   0.5000000   0.7071069  )
         8        Mo     tau(   8) = (   0.5000000   0.5000000   0.0000000  )
         9        O      tau(   9) = (   0.2500000   0.7500000  -0.0314875  )
        10        O      tau(  10) = (   0.2500000   0.2500000   0.0314875  )
        11        O      tau(  11) = (   0.7500000   0.2500000   0.6756195  )
        12        O      tau(  12) = (   0.7500000   0.7500000   0.7385944  )
        13        O      tau(  13) = (   0.7500000   0.2500000   0.0314875  )
        14        O      tau(  14) = (   0.7500000   0.7500000  -0.0314875  )
        15        O      tau(  15) = (   0.2500000   0.7500000   0.7385944  )
        16        O      tau(  16) = (   0.2500000   0.2500000   0.6756195  )
        17        O      tau(  17) = (   0.0000000  -0.0445300   0.3535535  )
        18        O      tau(  18) = (   0.0000000   0.0445300   1.0606604  )
        19        O      tau(  19) = (   0.5000000   0.4554700   1.0606604  )
        20        O      tau(  20) = (   0.5000000   0.5445300   0.3535535  )

   Crystallographic axes

     site n.     atom                  positions (cryst. coord.)
         1        Sr     tau(   1) = (  0.0000000  0.5000000  0.2500000  )
         2        Sr     tau(   2) = (  0.0000000  0.5000000  0.7500000  )
         3        Sr     tau(   3) = (  0.5000000  0.0000000  0.7500000  )
         4        Sr     tau(   4) = (  0.5000000  0.0000000  0.2500000  )
         5        Mo     tau(   5) = (  0.0000000  0.0000000  0.0000000  )
         6        Mo     tau(   6) = (  0.0000000  0.0000000  0.5000000  )
         7        Mo     tau(   7) = (  0.5000000  0.5000000  0.5000000  )
         8        Mo     tau(   8) = (  0.5000000  0.5000000  0.0000000  )
         9        O      tau(   9) = (  0.2500000  0.7500000 -0.0222650  )
        10        O      tau(  10) = (  0.2500000  0.2500000  0.0222650  )
        11        O      tau(  11) = (  0.7500000  0.2500000  0.4777350  )
        12        O      tau(  12) = (  0.7500000  0.7500000  0.5222650  )
        13        O      tau(  13) = (  0.7500000  0.2500000  0.0222650  )
        14        O      tau(  14) = (  0.7500000  0.7500000 -0.0222650  )
        15        O      tau(  15) = (  0.2500000  0.7500000  0.5222650  )
        16        O      tau(  16) = (  0.2500000  0.2500000  0.4777350  )
        17        O      tau(  17) = (  0.0000000 -0.0445300  0.2500000  )
        18        O      tau(  18) = (  0.0000000  0.0445300  0.7500000  )
        19        O      tau(  19) = (  0.5000000  0.4554700  0.7500000  )
        20        O      tau(  20) = (  0.5000000  0.5445300  0.2500000  )

     number of k points=   125  Fermi-Dirac smearing, width (Ry)=  0.0015
                       cart. coord. in units 2pi/alat
        k(    1) = (   0.0000000   0.0000000   0.0000000), wk =   0.0160000
        k(    2) = (   0.0000000   0.0000000   0.1414213), wk =   0.0160000
        k(    3) = (   0.0000000   0.0000000   0.2828427), wk =   0.0160000
        k(    4) = (   0.0000000   0.0000000   0.4242640), wk =   0.0160000
        k(    5) = (   0.0000000   0.0000000   0.5656853), wk =   0.0160000
        k(    6) = (   0.0000000   0.2000000   0.0000000), wk =   0.0160000
        k(    7) = (   0.0000000   0.2000000   0.1414213), wk =   0.0160000
        k(    8) = (   0.0000000   0.2000000   0.2828427), wk =   0.0160000
        k(    9) = (   0.0000000   0.2000000   0.4242640), wk =   0.0160000
        k(   10) = (   0.0000000   0.2000000   0.5656853), wk =   0.0160000
        k(   11) = (   0.0000000   0.4000000   0.0000000), wk =   0.0160000
        k(   12) = (   0.0000000   0.4000000   0.1414213), wk =   0.0160000
        k(   13) = (   0.0000000   0.4000000   0.2828427), wk =   0.0160000
        k(   14) = (   0.0000000   0.4000000   0.4242640), wk =   0.0160000
        k(   15) = (   0.0000000   0.4000000   0.5656853), wk =   0.0160000
        k(   16) = (   0.0000000   0.6000000   0.0000000), wk =   0.0160000
        k(   17) = (   0.0000000   0.6000000   0.1414213), wk =   0.0160000
        k(   18) = (   0.0000000   0.6000000   0.2828427), wk =   0.0160000
        k(   19) = (   0.0000000   0.6000000   0.4242640), wk =   0.0160000
        k(   20) = (   0.0000000   0.6000000   0.5656853), wk =   0.0160000
        k(   21) = (   0.0000000   0.8000000   0.0000000), wk =   0.0160000
        k(   22) = (   0.0000000   0.8000000   0.1414213), wk =   0.0160000
        k(   23) = (   0.0000000   0.8000000   0.2828427), wk =   0.0160000
        k(   24) = (   0.0000000   0.8000000   0.4242640), wk =   0.0160000
        k(   25) = (   0.0000000   0.8000000   0.5656853), wk =   0.0160000
        k(   26) = (   0.2000000   0.0000000   0.0000000), wk =   0.0160000
        k(   27) = (   0.2000000   0.0000000   0.1414213), wk =   0.0160000
        k(   28) = (   0.2000000   0.0000000   0.2828427), wk =   0.0160000
        k(   29) = (   0.2000000   0.0000000   0.4242640), wk =   0.0160000
        k(   30) = (   0.2000000   0.0000000   0.5656853), wk =   0.0160000
        k(   31) = (   0.2000000   0.2000000   0.0000000), wk =   0.0160000
        k(   32) = (   0.2000000   0.2000000   0.1414213), wk =   0.0160000
        k(   33) = (   0.2000000   0.2000000   0.2828427), wk =   0.0160000
        k(   34) = (   0.2000000   0.2000000   0.4242640), wk =   0.0160000
        k(   35) = (   0.2000000   0.2000000   0.5656853), wk =   0.0160000
        k(   36) = (   0.2000000   0.4000000   0.0000000), wk =   0.0160000
        k(   37) = (   0.2000000   0.4000000   0.1414213), wk =   0.0160000
        k(   38) = (   0.2000000   0.4000000   0.2828427), wk =   0.0160000
        k(   39) = (   0.2000000   0.4000000   0.4242640), wk =   0.0160000
        k(   40) = (   0.2000000   0.4000000   0.5656853), wk =   0.0160000
        k(   41) = (   0.2000000   0.6000000   0.0000000), wk =   0.0160000
        k(   42) = (   0.2000000   0.6000000   0.1414213), wk =   0.0160000
        k(   43) = (   0.2000000   0.6000000   0.2828427), wk =   0.0160000
        k(   44) = (   0.2000000   0.6000000   0.4242640), wk =   0.0160000
        k(   45) = (   0.2000000   0.6000000   0.5656853), wk =   0.0160000
        k(   46) = (   0.2000000   0.8000000   0.0000000), wk =   0.0160000
        k(   47) = (   0.2000000   0.8000000   0.1414213), wk =   0.0160000
        k(   48) = (   0.2000000   0.8000000   0.2828427), wk =   0.0160000
        k(   49) = (   0.2000000   0.8000000   0.4242640), wk =   0.0160000
        k(   50) = (   0.2000000   0.8000000   0.5656853), wk =   0.0160000
        k(   51) = (   0.4000000   0.0000000   0.0000000), wk =   0.0160000
        k(   52) = (   0.4000000   0.0000000   0.1414213), wk =   0.0160000
        k(   53) = (   0.4000000   0.0000000   0.2828427), wk =   0.0160000
        k(   54) = (   0.4000000   0.0000000   0.4242640), wk =   0.0160000
        k(   55) = (   0.4000000   0.0000000   0.5656853), wk =   0.0160000
        k(   56) = (   0.4000000   0.2000000   0.0000000), wk =   0.0160000
        k(   57) = (   0.4000000   0.2000000   0.1414213), wk =   0.0160000
        k(   58) = (   0.4000000   0.2000000   0.2828427), wk =   0.0160000
        k(   59) = (   0.4000000   0.2000000   0.4242640), wk =   0.0160000
        k(   60) = (   0.4000000   0.2000000   0.5656853), wk =   0.0160000
        k(   61) = (   0.4000000   0.4000000   0.0000000), wk =   0.0160000
        k(   62) = (   0.4000000   0.4000000   0.1414213), wk =   0.0160000
        k(   63) = (   0.4000000   0.4000000   0.2828427), wk =   0.0160000
        k(   64) = (   0.4000000   0.4000000   0.4242640), wk =   0.0160000
        k(   65) = (   0.4000000   0.4000000   0.5656853), wk =   0.0160000
        k(   66) = (   0.4000000   0.6000000   0.0000000), wk =   0.0160000
        k(   67) = (   0.4000000   0.6000000   0.1414213), wk =   0.0160000
        k(   68) = (   0.4000000   0.6000000   0.2828427), wk =   0.0160000
        k(   69) = (   0.4000000   0.6000000   0.4242640), wk =   0.0160000
        k(   70) = (   0.4000000   0.6000000   0.5656853), wk =   0.0160000
        k(   71) = (   0.4000000   0.8000000   0.0000000), wk =   0.0160000
        k(   72) = (   0.4000000   0.8000000   0.1414213), wk =   0.0160000
        k(   73) = (   0.4000000   0.8000000   0.2828427), wk =   0.0160000
        k(   74) = (   0.4000000   0.8000000   0.4242640), wk =   0.0160000
        k(   75) = (   0.4000000   0.8000000   0.5656853), wk =   0.0160000
        k(   76) = (   0.6000000   0.0000000   0.0000000), wk =   0.0160000
        k(   77) = (   0.6000000   0.0000000   0.1414213), wk =   0.0160000
        k(   78) = (   0.6000000   0.0000000   0.2828427), wk =   0.0160000
        k(   79) = (   0.6000000   0.0000000   0.4242640), wk =   0.0160000
        k(   80) = (   0.6000000   0.0000000   0.5656853), wk =   0.0160000
        k(   81) = (   0.6000000   0.2000000   0.0000000), wk =   0.0160000
        k(   82) = (   0.6000000   0.2000000   0.1414213), wk =   0.0160000
        k(   83) = (   0.6000000   0.2000000   0.2828427), wk =   0.0160000
        k(   84) = (   0.6000000   0.2000000   0.4242640), wk =   0.0160000
        k(   85) = (   0.6000000   0.2000000   0.5656853), wk =   0.0160000
        k(   86) = (   0.6000000   0.4000000   0.0000000), wk =   0.0160000
        k(   87) = (   0.6000000   0.4000000   0.1414213), wk =   0.0160000
        k(   88) = (   0.6000000   0.4000000   0.2828427), wk =   0.0160000
        k(   89) = (   0.6000000   0.4000000   0.4242640), wk =   0.0160000
        k(   90) = (   0.6000000   0.4000000   0.5656853), wk =   0.0160000
        k(   91) = (   0.6000000   0.6000000   0.0000000), wk =   0.0160000
        k(   92) = (   0.6000000   0.6000000   0.1414213), wk =   0.0160000
        k(   93) = (   0.6000000   0.6000000   0.2828427), wk =   0.0160000
        k(   94) = (   0.6000000   0.6000000   0.4242640), wk =   0.0160000
        k(   95) = (   0.6000000   0.6000000   0.5656853), wk =   0.0160000
        k(   96) = (   0.6000000   0.8000000   0.0000000), wk =   0.0160000
        k(   97) = (   0.6000000   0.8000000   0.1414213), wk =   0.0160000
        k(   98) = (   0.6000000   0.8000000   0.2828427), wk =   0.0160000
        k(   99) = (   0.6000000   0.8000000   0.4242640), wk =   0.0160000
        k(  100) = (   0.6000000   0.8000000   0.5656853), wk =   0.0160000
        k(  101) = (   0.8000000   0.0000000   0.0000000), wk =   0.0160000
        k(  102) = (   0.8000000   0.0000000   0.1414213), wk =   0.0160000
        k(  103) = (   0.8000000   0.0000000   0.2828427), wk =   0.0160000
        k(  104) = (   0.8000000   0.0000000   0.4242640), wk =   0.0160000
        k(  105) = (   0.8000000   0.0000000   0.5656853), wk =   0.0160000
        k(  106) = (   0.8000000   0.2000000   0.0000000), wk =   0.0160000
        k(  107) = (   0.8000000   0.2000000   0.1414213), wk =   0.0160000
        k(  108) = (   0.8000000   0.2000000   0.2828427), wk =   0.0160000
        k(  109) = (   0.8000000   0.2000000   0.4242640), wk =   0.0160000
        k(  110) = (   0.8000000   0.2000000   0.5656853), wk =   0.0160000
        k(  111) = (   0.8000000   0.4000000   0.0000000), wk =   0.0160000
        k(  112) = (   0.8000000   0.4000000   0.1414213), wk =   0.0160000
        k(  113) = (   0.8000000   0.4000000   0.2828427), wk =   0.0160000
        k(  114) = (   0.8000000   0.4000000   0.4242640), wk =   0.0160000
        k(  115) = (   0.8000000   0.4000000   0.5656853), wk =   0.0160000
        k(  116) = (   0.8000000   0.6000000   0.0000000), wk =   0.0160000
        k(  117) = (   0.8000000   0.6000000   0.1414213), wk =   0.0160000
        k(  118) = (   0.8000000   0.6000000   0.2828427), wk =   0.0160000
        k(  119) = (   0.8000000   0.6000000   0.4242640), wk =   0.0160000
        k(  120) = (   0.8000000   0.6000000   0.5656853), wk =   0.0160000
        k(  121) = (   0.8000000   0.8000000   0.0000000), wk =   0.0160000
        k(  122) = (   0.8000000   0.8000000   0.1414213), wk =   0.0160000
        k(  123) = (   0.8000000   0.8000000   0.2828427), wk =   0.0160000
        k(  124) = (   0.8000000   0.8000000   0.4242640), wk =   0.0160000
        k(  125) = (   0.8000000   0.8000000   0.5656853), wk =   0.0160000

                       cryst. coord.
        k(    1) = (   0.0000000   0.0000000   0.0000000), wk =   0.0160000
        k(    2) = (   0.0000000   0.0000000   0.2000000), wk =   0.0160000
        k(    3) = (   0.0000000   0.0000000   0.4000000), wk =   0.0160000
        k(    4) = (   0.0000000   0.0000000   0.6000000), wk =   0.0160000
        k(    5) = (   0.0000000   0.0000000   0.8000000), wk =   0.0160000
        k(    6) = (   0.0000000   0.2000000   0.0000000), wk =   0.0160000
        k(    7) = (   0.0000000   0.2000000   0.2000000), wk =   0.0160000
        k(    8) = (   0.0000000   0.2000000   0.4000000), wk =   0.0160000
        k(    9) = (   0.0000000   0.2000000   0.6000000), wk =   0.0160000
        k(   10) = (   0.0000000   0.2000000   0.8000000), wk =   0.0160000
        k(   11) = (   0.0000000   0.4000000   0.0000000), wk =   0.0160000
        k(   12) = (   0.0000000   0.4000000   0.2000000), wk =   0.0160000
        k(   13) = (   0.0000000   0.4000000   0.4000000), wk =   0.0160000
        k(   14) = (   0.0000000   0.4000000   0.6000000), wk =   0.0160000
        k(   15) = (   0.0000000   0.4000000   0.8000000), wk =   0.0160000
        k(   16) = (   0.0000000   0.6000000   0.0000000), wk =   0.0160000
        k(   17) = (   0.0000000   0.6000000   0.2000000), wk =   0.0160000
        k(   18) = (   0.0000000   0.6000000   0.4000000), wk =   0.0160000
        k(   19) = (   0.0000000   0.6000000   0.6000000), wk =   0.0160000
        k(   20) = (   0.0000000   0.6000000   0.8000000), wk =   0.0160000
        k(   21) = (   0.0000000   0.8000000   0.0000000), wk =   0.0160000
        k(   22) = (   0.0000000   0.8000000   0.2000000), wk =   0.0160000
        k(   23) = (   0.0000000   0.8000000   0.4000000), wk =   0.0160000
        k(   24) = (   0.0000000   0.8000000   0.6000000), wk =   0.0160000
        k(   25) = (   0.0000000   0.8000000   0.8000000), wk =   0.0160000
        k(   26) = (   0.2000000   0.0000000   0.0000000), wk =   0.0160000
        k(   27) = (   0.2000000   0.0000000   0.2000000), wk =   0.0160000
        k(   28) = (   0.2000000   0.0000000   0.4000000), wk =   0.0160000
        k(   29) = (   0.2000000   0.0000000   0.6000000), wk =   0.0160000
        k(   30) = (   0.2000000   0.0000000   0.8000000), wk =   0.0160000
        k(   31) = (   0.2000000   0.2000000   0.0000000), wk =   0.0160000
        k(   32) = (   0.2000000   0.2000000   0.2000000), wk =   0.0160000
        k(   33) = (   0.2000000   0.2000000   0.4000000), wk =   0.0160000
        k(   34) = (   0.2000000   0.2000000   0.6000000), wk =   0.0160000
        k(   35) = (   0.2000000   0.2000000   0.8000000), wk =   0.0160000
        k(   36) = (   0.2000000   0.4000000   0.0000000), wk =   0.0160000
        k(   37) = (   0.2000000   0.4000000   0.2000000), wk =   0.0160000
        k(   38) = (   0.2000000   0.4000000   0.4000000), wk =   0.0160000
        k(   39) = (   0.2000000   0.4000000   0.6000000), wk =   0.0160000
        k(   40) = (   0.2000000   0.4000000   0.8000000), wk =   0.0160000
        k(   41) = (   0.2000000   0.6000000   0.0000000), wk =   0.0160000
        k(   42) = (   0.2000000   0.6000000   0.2000000), wk =   0.0160000
        k(   43) = (   0.2000000   0.6000000   0.4000000), wk =   0.0160000
        k(   44) = (   0.2000000   0.6000000   0.6000000), wk =   0.0160000
        k(   45) = (   0.2000000   0.6000000   0.8000000), wk =   0.0160000
        k(   46) = (   0.2000000   0.8000000   0.0000000), wk =   0.0160000
        k(   47) = (   0.2000000   0.8000000   0.2000000), wk =   0.0160000
        k(   48) = (   0.2000000   0.8000000   0.4000000), wk =   0.0160000
        k(   49) = (   0.2000000   0.8000000   0.6000000), wk =   0.0160000
        k(   50) = (   0.2000000   0.8000000   0.8000000), wk =   0.0160000
        k(   51) = (   0.4000000   0.0000000   0.0000000), wk =   0.0160000
        k(   52) = (   0.4000000   0.0000000   0.2000000), wk =   0.0160000
        k(   53) = (   0.4000000   0.0000000   0.4000000), wk =   0.0160000
        k(   54) = (   0.4000000   0.0000000   0.6000000), wk =   0.0160000
        k(   55) = (   0.4000000   0.0000000   0.8000000), wk =   0.0160000
        k(   56) = (   0.4000000   0.2000000   0.0000000), wk =   0.0160000
        k(   57) = (   0.4000000   0.2000000   0.2000000), wk =   0.0160000
        k(   58) = (   0.4000000   0.2000000   0.4000000), wk =   0.0160000
        k(   59) = (   0.4000000   0.2000000   0.6000000), wk =   0.0160000
        k(   60) = (   0.4000000   0.2000000   0.8000000), wk =   0.0160000
        k(   61) = (   0.4000000   0.4000000   0.0000000), wk =   0.0160000
        k(   62) = (   0.4000000   0.4000000   0.2000000), wk =   0.0160000
        k(   63) = (   0.4000000   0.4000000   0.4000000), wk =   0.0160000
        k(   64) = (   0.4000000   0.4000000   0.6000000), wk =   0.0160000
        k(   65) = (   0.4000000   0.4000000   0.8000000), wk =   0.0160000
        k(   66) = (   0.4000000   0.6000000   0.0000000), wk =   0.0160000
        k(   67) = (   0.4000000   0.6000000   0.2000000), wk =   0.0160000
        k(   68) = (   0.4000000   0.6000000   0.4000000), wk =   0.0160000
        k(   69) = (   0.4000000   0.6000000   0.6000000), wk =   0.0160000
        k(   70) = (   0.4000000   0.6000000   0.8000000), wk =   0.0160000
        k(   71) = (   0.4000000   0.8000000   0.0000000), wk =   0.0160000
        k(   72) = (   0.4000000   0.8000000   0.2000000), wk =   0.0160000
        k(   73) = (   0.4000000   0.8000000   0.4000000), wk =   0.0160000
        k(   74) = (   0.4000000   0.8000000   0.6000000), wk =   0.0160000
        k(   75) = (   0.4000000   0.8000000   0.8000000), wk =   0.0160000
        k(   76) = (   0.6000000   0.0000000   0.0000000), wk =   0.0160000
        k(   77) = (   0.6000000   0.0000000   0.2000000), wk =   0.0160000
        k(   78) = (   0.6000000   0.0000000   0.4000000), wk =   0.0160000
        k(   79) = (   0.6000000   0.0000000   0.6000000), wk =   0.0160000
        k(   80) = (   0.6000000   0.0000000   0.8000000), wk =   0.0160000
        k(   81) = (   0.6000000   0.2000000   0.0000000), wk =   0.0160000
        k(   82) = (   0.6000000   0.2000000   0.2000000), wk =   0.0160000
        k(   83) = (   0.6000000   0.2000000   0.4000000), wk =   0.0160000
        k(   84) = (   0.6000000   0.2000000   0.6000000), wk =   0.0160000
        k(   85) = (   0.6000000   0.2000000   0.8000000), wk =   0.0160000
        k(   86) = (   0.6000000   0.4000000   0.0000000), wk =   0.0160000
        k(   87) = (   0.6000000   0.4000000   0.2000000), wk =   0.0160000
        k(   88) = (   0.6000000   0.4000000   0.4000000), wk =   0.0160000
        k(   89) = (   0.6000000   0.4000000   0.6000000), wk =   0.0160000
        k(   90) = (   0.6000000   0.4000000   0.8000000), wk =   0.0160000
        k(   91) = (   0.6000000   0.6000000   0.0000000), wk =   0.0160000
        k(   92) = (   0.6000000   0.6000000   0.2000000), wk =   0.0160000
        k(   93) = (   0.6000000   0.6000000   0.4000000), wk =   0.0160000
        k(   94) = (   0.6000000   0.6000000   0.6000000), wk =   0.0160000
        k(   95) = (   0.6000000   0.6000000   0.8000000), wk =   0.0160000
        k(   96) = (   0.6000000   0.8000000   0.0000000), wk =   0.0160000
        k(   97) = (   0.6000000   0.8000000   0.2000000), wk =   0.0160000
        k(   98) = (   0.6000000   0.8000000   0.4000000), wk =   0.0160000
        k(   99) = (   0.6000000   0.8000000   0.6000000), wk =   0.0160000
        k(  100) = (   0.6000000   0.8000000   0.8000000), wk =   0.0160000
        k(  101) = (   0.8000000   0.0000000   0.0000000), wk =   0.0160000
        k(  102) = (   0.8000000   0.0000000   0.2000000), wk =   0.0160000
        k(  103) = (   0.8000000   0.0000000   0.4000000), wk =   0.0160000
        k(  104) = (   0.8000000   0.0000000   0.6000000), wk =   0.0160000
        k(  105) = (   0.8000000   0.0000000   0.8000000), wk =   0.0160000
        k(  106) = (   0.8000000   0.2000000   0.0000000), wk =   0.0160000
        k(  107) = (   0.8000000   0.2000000   0.2000000), wk =   0.0160000
        k(  108) = (   0.8000000   0.2000000   0.4000000), wk =   0.0160000
        k(  109) = (   0.8000000   0.2000000   0.6000000), wk =   0.0160000
        k(  110) = (   0.8000000   0.2000000   0.8000000), wk =   0.0160000
        k(  111) = (   0.8000000   0.4000000   0.0000000), wk =   0.0160000
        k(  112) = (   0.8000000   0.4000000   0.2000000), wk =   0.0160000
        k(  113) = (   0.8000000   0.4000000   0.4000000), wk =   0.0160000
        k(  114) = (   0.8000000   0.4000000   0.6000000), wk =   0.0160000
        k(  115) = (   0.8000000   0.4000000   0.8000000), wk =   0.0160000
        k(  116) = (   0.8000000   0.6000000   0.0000000), wk =   0.0160000
        k(  117) = (   0.8000000   0.6000000   0.2000000), wk =   0.0160000
        k(  118) = (   0.8000000   0.6000000   0.4000000), wk =   0.0160000
        k(  119) = (   0.8000000   0.6000000   0.6000000), wk =   0.0160000
        k(  120) = (   0.8000000   0.6000000   0.8000000), wk =   0.0160000
        k(  121) = (   0.8000000   0.8000000   0.0000000), wk =   0.0160000
        k(  122) = (   0.8000000   0.8000000   0.2000000), wk =   0.0160000
        k(  123) = (   0.8000000   0.8000000   0.4000000), wk =   0.0160000
        k(  124) = (   0.8000000   0.8000000   0.6000000), wk =   0.0160000
        k(  125) = (   0.8000000   0.8000000   0.8000000), wk =   0.0160000

     Dense  grid:   228191 G-vectors     FFT dimensions: (  72,  72,  96)

     Smooth grid:    80831 G-vectors     FFT dimensions: (  48,  48,  72)

     Dynamical RAM for                 wfc:      15.54 MB

     Dynamical RAM for     wfc (w. buffer):      15.54 MB

     Dynamical RAM for           str. fact:      10.45 MB

     Dynamical RAM for           local pot:       0.00 MB

     Dynamical RAM for          nlocal pot:      36.92 MB

     Dynamical RAM for                qrad:       4.82 MB

     Dynamical RAM for          rho,v,vnew:      21.84 MB

     Dynamical RAM for           G-vectors:      13.67 MB

     Dynamical RAM for          h,s,v(r/c):      29.89 MB

     Dynamical RAM for          <psi|beta>:       0.37 MB

     Dynamical RAM for                 psi:     124.29 MB

     Dynamical RAM for                hpsi:     124.29 MB

     Dynamical RAM for                spsi:     124.29 MB

     Dynamical RAM for      wfcinit/wfcrot:      31.31 MB

     Dynamical RAM for           addusdens:       8.84 MB

     Estimated static dynamical RAM per process >     136.14 MB

     Estimated max dynamical RAM per process >     539.26 MB

     Estimated total dynamical RAM >      67.41 GB

     Check: negative core charge=   -0.000002

     The potential is recalculated from file :
     ./out/smo.save/charge-density

     Starting wfcs are  120 randomized atomic wfcs
     Checking if some PAW data can be deallocated... 
       PAW data deallocated on  100 nodes for type:  1
       PAW data deallocated on  100 nodes for type:  2
       PAW data deallocated on   56 nodes for type:  3

     Band Structure Calculation
     Davidson diagonalization with overlap

     Computing kpt #:     1  of     1 on this pool
     c_bands:  2 eigenvalues not converged
     total cpu time spent up to now is       37.4 secs

     ethr =  5.95E-12,  avg # of iterations = 56.6

     total cpu time spent up to now is       37.4 secs

     End of band structure calculation

          k = 0.0000 0.0000 0.0000 ( 10085 PWs)   bands (ev):

   -49.0094 -49.0086 -49.0065 -49.0055 -23.3232 -23.3156 -23.3118 -23.3062
   -23.3005 -23.2966 -23.2392 -23.2371 -23.2357 -23.2284 -23.2244 -23.2213
   -22.0133 -21.9820 -21.9759 -21.9601  -6.9920  -6.7415  -6.2832  -6.1795
    -6.1214  -6.0355  -5.8976  -5.8079  -5.4113  -5.3985  -5.3598  -5.3288
    -4.3192  -4.2527  -4.1513  -4.0485  -4.0114  -3.9819  -3.9745  -3.9693
    -3.9669  -3.6553  -3.5659  -3.5542   5.1617   5.1856   5.2157   5.3015
     5.3349   5.4278   5.6159   6.2683   6.2800   6.2823   7.2006   7.2090
     7.6735   7.6840   7.6926   7.7180   7.7644   7.7680   7.7928   7.8374
     8.1360   8.6791   8.7376   8.8337   9.0174   9.0886   9.1204   9.4009
     9.4319   9.6884   9.6989   9.7258   9.9430  10.0027  10.0797  10.1146
    11.6647  11.6989  11.7418  11.8170  13.9807  14.1115  14.2374  14.2881
    14.7589  15.0152  15.0965  15.3021  15.5262  15.6364  15.7396  15.8312
    16.0305  16.1069  16.5080  17.0645  17.1624

     occupation numbers 
     1.0000   1.0000   1.0000   1.0000   1.0000   1.0000   1.0000   1.0000
     1.0000   1.0000   1.0000   1.0000   1.0000   1.0000   1.0000   1.0000
     1.0000   1.0000   1.0000   1.0000   1.0000   1.0000   1.0000   1.0000
     1.0000   1.0000   1.0000   1.0000   1.0000   1.0000   1.0000   1.0000
     1.0000   1.0000   1.0000   1.0000   1.0000   1.0000   1.0000   1.0000
     1.0000   1.0000   1.0000   1.0000   1.0000   1.0000   1.0000   1.0000
     1.0000   1.0000   1.0000   1.0000   1.0000   1.0000   1.0000   1.0000
     1.0000   1.0000   1.0000   1.0000   1.0000   1.0000   1.0000   1.0000
     1.0000   1.0000   1.0000   1.0000   1.0000   1.0000   1.0000   1.0000
     1.0000   1.0000   1.0000   1.0000   1.0000   1.0000   1.0000   1.0000
     1.0000   1.0000   1.0000   1.0000   0.0000   0.0000   0.0000   0.0000
     0.0000   0.0000   0.0000   0.0000   0.0000   0.0000   0.0000   0.0000
     0.0000   0.0000   0.0000   0.0000   0.0000

          k = 0.0000 0.0000 0.1414 ( 10050 PWs)   bands (ev):

   -49.0093 -49.0083 -49.0066 -49.0053 -23.3163 -23.3139 -23.3121 -23.3002
   -23.2988 -23.2969 -23.2443 -23.2391 -23.2389 -23.2340 -23.2241 -23.2214
   -22.0102 -21.9848 -21.9744 -21.9616  -6.9612  -6.7457  -6.2062  -6.1499
    -6.1157  -6.0493  -5.8859  -5.7671  -5.4913  -5.4565  -5.4336  -5.3899
    -4.2880  -4.1779  -4.0817  -4.0450  -4.0149  -4.0094  -3.9706  -3.9699
    -3.9362  -3.7020  -3.6137  -3.5907   5.1640   5.1834   5.3116   5.3420
     5.5071   5.5391   5.7734   6.1873   6.3365   6.3385   7.0460   7.0616
     7.5552   7.6047   7.6498   7.7521   7.7736   7.8461   7.8691   7.9376
     8.2368   8.3024   8.8629   8.9248   8.9377   8.9824   8.9991   9.3464
     9.4061   9.4464   9.6088   9.6501   9.8899   9.9348  10.1115  10.1187
    11.7087  11.8039  11.9741  12.0394  13.8275  14.0177  14.1750  14.3533
    14.8851  14.9013  15.1126  15.2822  15.5276  15.5943  15.9169  15.9455
    16.2221  16.2506  16.8472  17.2237  17.3092

     occupation numbers 
     1.0000   1.0000   1.0000   1.0000   1.0000   1.0000   1.0000   1.0000
     1.0000   1.0000   1.0000   1.0000   1.0000   1.0000   1.0000   1.0000
     1.0000   1.0000   1.0000   1.0000   1.0000   1.0000   1.0000   1.0000
     1.0000   1.0000   1.0000   1.0000   1.0000   1.0000   1.0000   1.0000
     1.0000   1.0000   1.0000   1.0000   1.0000   1.0000   1.0000   1.0000
     1.0000   1.0000   1.0000   1.0000   1.0000   1.0000   1.0000   1.0000
     1.0000   1.0000   1.0000   1.0000   1.0000   1.0000   1.0000   1.0000
     1.0000   1.0000   1.0000   1.0000   1.0000   1.0000   1.0000   1.0000
     1.0000   1.0000   1.0000   1.0000   1.0000   1.0000   1.0000   1.0000
     1.0000   1.0000   1.0000   1.0000   1.0000   1.0000   1.0000   1.0000
     1.0000   1.0000   1.0000   1.0000   0.0000   0.0000   0.0000   0.0000
     0.0000   0.0000   0.0000   0.0000   0.0000   0.0000   0.0000   0.0000
     0.0000   0.0000   0.0000   0.0000   0.0000

          k = 0.0000 0.0000 0.2828 ( 10046 PWs)   bands (ev):

   -49.0091 -49.0085 -49.0063 -49.0055 -23.3145 -23.3132 -23.2992 -23.2979
   -23.2932 -23.2797 -23.2664 -23.2564 -23.2381 -23.2368 -23.2233 -23.2221
   -22.0022 -21.9925 -21.9705 -21.9656  -6.8812  -6.7918  -6.0997  -6.0758
    -6.0344  -5.9979  -5.9005  -5.7254  -5.6633  -5.5593  -5.5444  -5.5245
    -4.2046  -4.0983  -4.0358  -4.0242  -4.0089  -3.9738  -3.9734  -3.9191
    -3.8310  -3.8222  -3.7433  -3.6907   5.1700   5.1774   5.3574   5.3647
     5.7161   5.9755   6.1612   6.4079   6.4947   6.5015   6.7570   6.7833
     6.9705   7.3091   7.6704   7.7143   7.7144   7.7244   8.1276   8.1539
     8.2341   8.4584   8.5004   8.5414   8.7259   8.7332   9.3070   9.3618
     9.4399   9.4891   9.5063   9.5574   9.6658   9.7138  10.1274  10.1307
    11.7351  11.7714  12.6440  12.7095  13.3412  13.4449  14.3589  14.5389
    14.6317  14.7874  15.1611  15.2282  15.5336  15.5510  16.3340  16.4465
    16.6444  16.8715  16.9794  17.1516  17.1607

     occupation numbers 
     1.0000   1.0000   1.0000   1.0000   1.0000   1.0000   1.0000   1.0000
     1.0000   1.0000   1.0000   1.0000   1.0000   1.0000   1.0000   1.0000
     1.0000   1.0000   1.0000   1.0000   1.0000   1.0000   1.0000   1.0000
     1.0000   1.0000   1.0000   1.0000   1.0000   1.0000   1.0000   1.0000
     1.0000   1.0000   1.0000   1.0000   1.0000   1.0000   1.0000   1.0000
     1.0000   1.0000   1.0000   1.0000   1.0000   1.0000   1.0000   1.0000
     1.0000   1.0000   1.0000   1.0000   1.0000   1.0000   1.0000   1.0000
     1.0000   1.0000   1.0000   1.0000   1.0000   1.0000   1.0000   1.0000
     1.0000   1.0000   1.0000   1.0000   1.0000   1.0000   1.0000   1.0000
     1.0000   1.0000   1.0000   1.0000   1.0000   1.0000   1.0000   1.0000
     1.0000   1.0000   1.0000   1.0000   0.9998   0.9714   0.0000   0.0000
     0.0000   0.0000   0.0000   0.0000   0.0000   0.0000   0.0000   0.0000
     0.0000   0.0000   0.0000   0.0000   0.0000

          k = 0.0000 0.0000 0.4243 ( 10046 PWs)   bands (ev):

   -49.0091 -49.0085 -49.0063 -49.0055 -23.3145 -23.3132 -23.2992 -23.2979
   -23.2932 -23.2797 -23.2664 -23.2564 -23.2381 -23.2368 -23.2233 -23.2221
   -22.0022 -21.9925 -21.9705 -21.9656  -6.8812  -6.7918  -6.0997  -6.0758
    -6.0344  -5.9979  -5.9005  -5.7254  -5.6633  -5.5593  -5.5444  -5.5245
    -4.2046  -4.0983  -4.0358  -4.0242  -4.0089  -3.9738  -3.9734  -3.9191
    -3.8310  -3.8222  -3.7433  -3.6907   5.1700   5.1774   5.3574   5.3647
     5.7161   5.9755   6.1612   6.4079   6.4947   6.5015   6.7570   6.7833
     6.9705   7.3091   7.6704   7.7143   7.7144   7.7244   8.1276   8.1539
     8.2341   8.4584   8.5004   8.5414   8.7259   8.7332   9.3070   9.3618
     9.4399   9.4891   9.5063   9.5574   9.6658   9.7138  10.1274  10.1307
    11.7351  11.7714  12.6440  12.7095  13.3412  13.4449  14.3589  14.5389
    14.6317  14.7874  15.1611  15.2282  15.5336  15.5510  16.3340  16.4465
    16.6444  16.8715  16.9794  17.1516  17.1607

     occupation numbers 
     1.0000   1.0000   1.0000   1.0000   1.0000   1.0000   1.0000   1.0000
     1.0000   1.0000   1.0000   1.0000   1.0000   1.0000   1.0000   1.0000
     1.0000   1.0000   1.0000   1.0000   1.0000   1.0000   1.0000   1.0000
     1.0000   1.0000   1.0000   1.0000   1.0000   1.0000   1.0000   1.0000
     1.0000   1.0000   1.0000   1.0000   1.0000   1.0000   1.0000   1.0000
     1.0000   1.0000   1.0000   1.0000   1.0000   1.0000   1.0000   1.0000
     1.0000   1.0000   1.0000   1.0000   1.0000   1.0000   1.0000   1.0000
     1.0000   1.0000   1.0000   1.0000   1.0000   1.0000   1.0000   1.0000
     1.0000   1.0000   1.0000   1.0000   1.0000   1.0000   1.0000   1.0000
     1.0000   1.0000   1.0000   1.0000   1.0000   1.0000   1.0000   1.0000
     1.0000   1.0000   1.0000   1.0000   0.9998   0.9714   0.0000   0.0000
     0.0000   0.0000   0.0000   0.0000   0.0000   0.0000   0.0000   0.0000
     0.0000   0.0000   0.0000   0.0000   0.0000

          k = 0.0000 0.0000 0.5657 ( 10050 PWs)   bands (ev):

   -49.0093 -49.0083 -49.0066 -49.0053 -23.3163 -23.3139 -23.3121 -23.3002
   -23.2988 -23.2969 -23.2443 -23.2391 -23.2389 -23.2340 -23.2241 -23.2214
   -22.0102 -21.9848 -21.9744 -21.9616  -6.9612  -6.7457  -6.2062  -6.1499
    -6.1157  -6.0493  -5.8859  -5.7671  -5.4913  -5.4565  -5.4336  -5.3899
    -4.2880  -4.1779  -4.0817  -4.0450  -4.0149  -4.0094  -3.9706  -3.9699
    -3.9362  -3.7020  -3.6137  -3.5907   5.1640   5.1834   5.3116   5.3420
     5.5071   5.5391   5.7734   6.1873   6.3365   6.3385   7.0460   7.0616
     7.5552   7.6047   7.6498   7.7521   7.7736   7.8461   7.8691   7.9376
     8.2368   8.3024   8.8629   8.9248   8.9377   8.9824   8.9991   9.3464
     9.4061   9.4464   9.6088   9.6501   9.8899   9.9348  10.1115  10.1187
    11.7087  11.8039  11.9741  12.0394  13.8275  14.0177  14.1750  14.3533
    14.8851  14.9013  15.1126  15.2822  15.5276  15.5943  15.9169  15.9455
    16.2221  16.2506  16.8472  17.2237  17.3092

     occupation numbers 
     1.0000   1.0000   1.0000   1.0000   1.0000   1.0000   1.0000   1.0000
     1.0000   1.0000   1.0000   1.0000   1.0000   1.0000   1.0000   1.0000
     1.0000   1.0000   1.0000   1.0000   1.0000   1.0000   1.0000   1.0000
     1.0000   1.0000   1.0000   1.0000   1.0000   1.0000   1.0000   1.0000
     1.0000   1.0000   1.0000   1.0000   1.0000   1.0000   1.0000   1.0000
     1.0000   1.0000   1.0000   1.0000   1.0000   1.0000   1.0000   1.0000
     1.0000   1.0000   1.0000   1.0000   1.0000   1.0000   1.0000   1.0000
     1.0000   1.0000   1.0000   1.0000   1.0000   1.0000   1.0000   1.0000
     1.0000   1.0000   1.0000   1.0000   1.0000   1.0000   1.0000   1.0000
     1.0000   1.0000   1.0000   1.0000   1.0000   1.0000   1.0000   1.0000
     1.0000   1.0000   1.0000   1.0000   0.0000   0.0000   0.0000   0.0000
     0.0000   0.0000   0.0000   0.0000   0.0000   0.0000   0.0000   0.0000
     0.0000   0.0000   0.0000   0.0000   0.0000

          k = 0.0000 0.2000 0.0000 ( 10076 PWs)   bands (ev):

   -49.0092 -49.0077 -49.0073 -49.0056 -23.3207 -23.3102 -23.3070 -23.3049
   -23.2934 -23.2894 -23.2484 -23.2440 -23.2351 -23.2318 -23.2296 -23.2283
   -22.0073 -21.9809 -21.9772 -21.9632  -6.8732  -6.7401  -6.4418  -6.1418
    -6.0881  -5.9748  -5.8338  -5.7888  -5.6265  -5.4775  -5.4750  -5.4043
    -4.2415  -4.2229  -4.0446  -4.0184  -4.0104  -3.9887  -3.9552  -3.8781
    -3.8560  -3.6964  -3.5936  -3.5898   5.2844   5.3042   5.4170   5.4404
     5.5456   5.6895   5.8003   6.1859   6.3291   6.3923   6.8951   7.2551
     7.2622   7.3132   7.4371   7.4641   7.6245   7.6266   7.7260   8.5082
     8.5180   8.5457   8.6933   8.7196   8.7566   8.8972   8.9596   9.1088
     9.1726   9.2684   9.4262   9.5333   9.9171   9.9379   9.9761   9.9970
    11.9575  12.0757  12.1940  12.3393  13.9980  14.0295  14.0572  14.2676
    14.7567  14.8045  15.0034  15.0468  15.8183  16.0396  16.0656  16.0728
    16.3873  16.4345  16.4731  17.3195  17.4648

     occupation numbers 
     1.0000   1.0000   1.0000   1.0000   1.0000   1.0000   1.0000   1.0000
     1.0000   1.0000   1.0000   1.0000   1.0000   1.0000   1.0000   1.0000
     1.0000   1.0000   1.0000   1.0000   1.0000   1.0000   1.0000   1.0000
     1.0000   1.0000   1.0000   1.0000   1.0000   1.0000   1.0000   1.0000
     1.0000   1.0000   1.0000   1.0000   1.0000   1.0000   1.0000   1.0000
     1.0000   1.0000   1.0000   1.0000   1.0000   1.0000   1.0000   1.0000
     1.0000   1.0000   1.0000   1.0000   1.0000   1.0000   1.0000   1.0000
     1.0000   1.0000   1.0000   1.0000   1.0000   1.0000   1.0000   1.0000
     1.0000   1.0000   1.0000   1.0000   1.0000   1.0000   1.0000   1.0000
     1.0000   1.0000   1.0000   1.0000   1.0000   1.0000   1.0000   1.0000
     1.0000   1.0000   1.0000   1.0000   0.0000   0.0000   0.0000   0.0000
     0.0000   0.0000   0.0000   0.0000   0.0000   0.0000   0.0000   0.0000
     0.0000   0.0000   0.0000   0.0000   0.0000

          k = 0.0000 0.2000 0.1414 ( 10060 PWs)   bands (ev):

   -49.0092 -49.0080 -49.0069 -49.0055 -23.3133 -23.3091 -23.3053 -23.2997
   -23.2930 -23.2897 -23.2482 -23.2449 -23.2432 -23.2365 -23.2314 -23.2286
   -22.0047 -21.9833 -21.9758 -21.9646  -6.8476  -6.7259  -6.3727  -6.1272
    -6.0806  -5.9945  -5.7923  -5.7783  -5.7108  -5.5430  -5.4920  -5.4552
    -4.2216  -4.1836  -4.0445  -4.0258  -4.0065  -3.9886  -3.9113  -3.8682
    -3.8587  -3.7370  -3.6231  -3.6142   5.4192   5.4381   5.4635   5.5390
     5.5646   5.7412   5.8482   6.2205   6.3818   6.3885   6.9651   7.0944
     7.1380   7.3277   7.3682   7.4962   7.5885   7.6114   7.6515   8.2992
     8.4323   8.4810   8.5525   8.6861   8.8927   8.9490   9.0230   9.0661
     9.1985   9.2070   9.3837   9.3962   9.8739   9.9028   9.9717   9.9766
    12.1495  12.2462  12.2876  12.3251  13.8823  14.0433  14.0688  14.1265
    14.7962  14.8170  14.8893  14.9807  16.0534  16.0672  16.0702  16.1993
    16.5212  16.5663  16.8335  17.5263  17.6034

     occupation numbers 
     1.0000   1.0000   1.0000   1.0000   1.0000   1.0000   1.0000   1.0000
     1.0000   1.0000   1.0000   1.0000   1.0000   1.0000   1.0000   1.0000
     1.0000   1.0000   1.0000   1.0000   1.0000   1.0000   1.0000   1.0000
     1.0000   1.0000   1.0000   1.0000   1.0000   1.0000   1.0000   1.0000
     1.0000   1.0000   1.0000   1.0000   1.0000   1.0000   1.0000   1.0000
     1.0000   1.0000   1.0000   1.0000   1.0000   1.0000   1.0000   1.0000
     1.0000   1.0000   1.0000   1.0000   1.0000   1.0000   1.0000   1.0000
     1.0000   1.0000   1.0000   1.0000   1.0000   1.0000   1.0000   1.0000
     1.0000   1.0000   1.0000   1.0000   1.0000   1.0000   1.0000   1.0000
     1.0000   1.0000   1.0000   1.0000   1.0000   1.0000   1.0000   1.0000
     1.0000   1.0000   1.0000   1.0000   0.0000   0.0000   0.0000   0.0000
     0.0000   0.0000   0.0000   0.0000   0.0000   0.0000   0.0000   0.0000
     0.0000   0.0000   0.0000   0.0000   0.0000

          k = 0.0000 0.2000 0.2828 ( 10071 PWs)   bands (ev):

   -49.0088 -49.0083 -49.0066 -49.0061 -23.3086 -23.3068 -23.2920 -23.2914
   -23.2907 -23.2807 -23.2652 -23.2573 -23.2464 -23.2447 -23.2305 -23.2295
   -21.9980 -21.9898 -21.9724 -21.9681  -6.7852  -6.7294  -6.1932  -6.0652
    -6.0594  -6.0286  -5.8838  -5.8280  -5.6953  -5.6130  -5.5713  -5.5546
    -4.1885  -4.1104  -4.0774  -4.0471  -3.9694  -3.9394  -3.8994  -3.8462
    -3.8102  -3.7864  -3.7020  -3.6874   5.4250   5.4322   5.5908   5.6022
     5.8884   6.0529   6.1576   6.3617   6.5624   6.5902   6.7679   6.8323
     6.9121   7.1256   7.3893   7.4484   7.4643   7.5634   7.6992   7.7745
     8.0731   8.0851   8.5938   8.6946   8.9288   9.0416   9.1456   9.2017
     9.2162   9.2831   9.3056   9.4274   9.6581   9.7208   9.9751   9.9773
    12.2362  12.2869  12.7707  12.8310  13.4166  13.4968  14.2566  14.3283
    14.5604  14.6130  14.8615  14.9261  16.0688  16.0689  16.6413  16.6842
    16.8879  17.0945  17.1752  17.3414  17.3669

     occupation numbers 
     1.0000   1.0000   1.0000   1.0000   1.0000   1.0000   1.0000   1.0000
     1.0000   1.0000   1.0000   1.0000   1.0000   1.0000   1.0000   1.0000
     1.0000   1.0000   1.0000   1.0000   1.0000   1.0000   1.0000   1.0000
     1.0000   1.0000   1.0000   1.0000   1.0000   1.0000   1.0000   1.0000
     1.0000   1.0000   1.0000   1.0000   1.0000   1.0000   1.0000   1.0000
     1.0000   1.0000   1.0000   1.0000   1.0000   1.0000   1.0000   1.0000
     1.0000   1.0000   1.0000   1.0000   1.0000   1.0000   1.0000   1.0000
     1.0000   1.0000   1.0000   1.0000   1.0000   1.0000   1.0000   1.0000
     1.0000   1.0000   1.0000   1.0000   1.0000   1.0000   1.0000   1.0000
     1.0000   1.0000   1.0000   1.0000   1.0000   1.0000   1.0000   1.0000
     1.0000   1.0000   1.0000   1.0000   0.9927   0.7273   0.0000   0.0000
     0.0000   0.0000   0.0000   0.0000   0.0000   0.0000   0.0000   0.0000
     0.0000   0.0000   0.0000   0.0000   0.0000

          k = 0.0000 0.2000 0.4243 ( 10071 PWs)   bands (ev):

   -49.0088 -49.0083 -49.0066 -49.0061 -23.3086 -23.3068 -23.2920 -23.2914
   -23.2907 -23.2807 -23.2652 -23.2573 -23.2464 -23.2447 -23.2305 -23.2295
   -21.9980 -21.9898 -21.9724 -21.9681  -6.7852  -6.7294  -6.1932  -6.0652
    -6.0594  -6.0286  -5.8838  -5.8280  -5.6953  -5.6130  -5.5713  -5.5546
    -4.1885  -4.1104  -4.0774  -4.0471  -3.9694  -3.9394  -3.8994  -3.8462
    -3.8102  -3.7864  -3.7020  -3.6874   5.4250   5.4322   5.5908   5.6022
     5.8884   6.0529   6.1576   6.3617   6.5624   6.5902   6.7679   6.8323
     6.9121   7.1256   7.3893   7.4484   7.4643   7.5634   7.6992   7.7745
     8.0731   8.0851   8.5938   8.6946   8.9288   9.0416   9.1456   9.2017
     9.2162   9.2831   9.3056   9.4274   9.6581   9.7208   9.9751   9.9773
    12.2362  12.2869  12.7707  12.8310  13.4166  13.4968  14.2566  14.3283
    14.5604  14.6130  14.8615  14.9261  16.0688  16.0689  16.6413  16.6842
    16.8879  17.0945  17.1752  17.3414  17.3669

     occupation numbers 
     1.0000   1.0000   1.0000   1.0000   1.0000   1.0000   1.0000   1.0000
     1.0000   1.0000   1.0000   1.0000   1.0000   1.0000   1.0000   1.0000
     1.0000   1.0000   1.0000   1.0000   1.0000   1.0000   1.0000   1.0000
     1.0000   1.0000   1.0000   1.0000   1.0000   1.0000   1.0000   1.0000
     1.0000   1.0000   1.0000   1.0000   1.0000   1.0000   1.0000   1.0000
     1.0000   1.0000   1.0000   1.0000   1.0000   1.0000   1.0000   1.0000
     1.0000   1.0000   1.0000   1.0000   1.0000   1.0000   1.0000   1.0000
     1.0000   1.0000   1.0000   1.0000   1.0000   1.0000   1.0000   1.0000
     1.0000   1.0000   1.0000   1.0000   1.0000   1.0000   1.0000   1.0000
     1.0000   1.0000   1.0000   1.0000   1.0000   1.0000   1.0000   1.0000
     1.0000   1.0000   1.0000   1.0000   0.9927   0.7273   0.0000   0.0000
     0.0000   0.0000   0.0000   0.0000   0.0000   0.0000   0.0000   0.0000
     0.0000   0.0000   0.0000   0.0000   0.0000

          k = 0.0000 0.2000 0.5657 ( 10060 PWs)   bands (ev):

   -49.0092 -49.0080 -49.0069 -49.0055 -23.3133 -23.3091 -23.3053 -23.2997
   -23.2930 -23.2897 -23.2482 -23.2449 -23.2432 -23.2365 -23.2314 -23.2286
   -22.0047 -21.9833 -21.9758 -21.9646  -6.8476  -6.7259  -6.3727  -6.1272
    -6.0806  -5.9945  -5.7923  -5.7783  -5.7108  -5.5430  -5.4920  -5.4552
    -4.2216  -4.1836  -4.0445  -4.0258  -4.0065  -3.9886  -3.9113  -3.8682
    -3.8587  -3.7370  -3.6231  -3.6142   5.4192   5.4381   5.4635   5.5390
     5.5646   5.7412   5.8482   6.2205   6.3818   6.3885   6.9651   7.0944
     7.1380   7.3277   7.3682   7.4962   7.5885   7.6114   7.6515   8.2992
     8.4323   8.4810   8.5525   8.6861   8.8927   8.9490   9.0230   9.0661
     9.1985   9.2070   9.3837   9.3962   9.8739   9.9028   9.9717   9.9766
    12.1495  12.2462  12.2876  12.3251  13.8823  14.0433  14.0688  14.1265
    14.7962  14.8170  14.8893  14.9807  16.0534  16.0672  16.0702  16.1993
    16.5212  16.5663  16.8335  17.5263  17.6034

     occupation numbers 
     1.0000   1.0000   1.0000   1.0000   1.0000   1.0000   1.0000   1.0000
     1.0000   1.0000   1.0000   1.0000   1.0000   1.0000   1.0000   1.0000
     1.0000   1.0000   1.0000   1.0000   1.0000   1.0000   1.0000   1.0000
     1.0000   1.0000   1.0000   1.0000   1.0000   1.0000   1.0000   1.0000
     1.0000   1.0000   1.0000   1.0000   1.0000   1.0000   1.0000   1.0000
     1.0000   1.0000   1.0000   1.0000   1.0000   1.0000   1.0000   1.0000
     1.0000   1.0000   1.0000   1.0000   1.0000   1.0000   1.0000   1.0000
     1.0000   1.0000   1.0000   1.0000   1.0000   1.0000   1.0000   1.0000
     1.0000   1.0000   1.0000   1.0000   1.0000   1.0000   1.0000   1.0000
     1.0000   1.0000   1.0000   1.0000   1.0000   1.0000   1.0000   1.0000
     1.0000   1.0000   1.0000   1.0000   0.0000   0.0000   0.0000   0.0000
     0.0000   0.0000   0.0000   0.0000   0.0000   0.0000   0.0000   0.0000
     0.0000   0.0000   0.0000   0.0000   0.0000

          k = 0.0000 0.4000 0.0000 ( 10072 PWs)   bands (ev):

   -49.0085 -49.0078 -49.0071 -49.0063 -23.3153 -23.3101 -23.2939 -23.2865
   -23.2745 -23.2706 -23.2704 -23.2631 -23.2509 -23.2472 -23.2334 -23.2313
   -21.9940 -21.9826 -21.9771 -21.9704  -6.7263  -6.6368  -6.5428  -6.0806
    -6.0038  -5.9940  -5.9061  -5.8101  -5.7799  -5.6315  -5.5929  -5.5865
    -4.1985  -4.1225  -4.0946  -4.0273  -3.9148  -3.8527  -3.7974  -3.7972
    -3.7198  -3.7104  -3.7045  -3.6468   5.3112   5.3172   6.0498   6.0731
     6.1038   6.1334   6.2867   6.3431   6.4634   6.4871   6.7796   6.7981
     6.8601   6.9166   6.9943   7.0313   7.3677   7.5039   7.6266   7.6453
     7.8983   8.1618   8.4669   8.6835   8.7585   8.9169   8.9442   9.1160
     9.2080   9.2430   9.3288   9.4257   9.5144   9.6670   9.6681   9.8512
    12.6398  12.8034  13.1117  13.3001  13.4645  13.5273  13.9991  14.2867
    14.2884  14.4208  14.5518  14.7439  16.0267  16.3117  16.7287  17.1629
    17.3391  17.3650  17.4207  17.4976  17.9056

     occupation numbers 
     1.0000   1.0000   1.0000   1.0000   1.0000   1.0000   1.0000   1.0000
     1.0000   1.0000   1.0000   1.0000   1.0000   1.0000   1.0000   1.0000
     1.0000   1.0000   1.0000   1.0000   1.0000   1.0000   1.0000   1.0000
     1.0000   1.0000   1.0000   1.0000   1.0000   1.0000   1.0000   1.0000
     1.0000   1.0000   1.0000   1.0000   1.0000   1.0000   1.0000   1.0000
     1.0000   1.0000   1.0000   1.0000   1.0000   1.0000   1.0000   1.0000
     1.0000   1.0000   1.0000   1.0000   1.0000   1.0000   1.0000   1.0000
     1.0000   1.0000   1.0000   1.0000   1.0000   1.0000   1.0000   1.0000
     1.0000   1.0000   1.0000   1.0000   1.0000   1.0000   1.0000   1.0000
     1.0000   1.0000   1.0000   1.0000   1.0000   1.0000   1.0000   1.0000
     1.0000   1.0000   1.0000   1.0000   0.9284   0.3738   0.0000   0.0000
     0.0000   0.0000   0.0000   0.0000   0.0000   0.0000   0.0000   0.0000
     0.0000   0.0000   0.0000   0.0000   0.0000

          k = 0.0000 0.4000 0.1414 ( 10078 PWs)   bands (ev):

   -49.0085 -49.0076 -49.0074 -49.0063 -23.3079 -23.3027 -23.2930 -23.2871
   -23.2741 -23.2709 -23.2697 -23.2639 -23.2505 -23.2477 -23.2412 -23.2388
   -21.9924 -21.9815 -21.9787 -21.9715  -6.6805  -6.5761  -6.5330  -6.1146
    -5.9934  -5.9920  -5.9057  -5.8042  -5.7807  -5.6881  -5.6244  -5.6223
    -4.1670  -4.1109  -4.1024  -4.0545  -3.9216  -3.8941  -3.8221  -3.7834
    -3.7444  -3.7012  -3.6623  -3.6375   5.5469   5.5550   6.0528   6.0601
     6.1063   6.1294   6.3445   6.4476   6.4858   6.5553   6.7274   6.8257
     6.8549   6.9694   6.9929   7.0474   7.1979   7.4279   7.4387   7.5186
     7.8201   7.9035   8.3213   8.4807   8.8656   8.9227   9.1039   9.1224
     9.1678   9.3034   9.3319   9.4583   9.5251   9.6602   9.6695   9.8256
    12.7732  12.9091  13.1361  13.3022  13.5272  13.5955  13.9993  14.1836
    14.2168  14.2627  14.4809  14.5644  16.3714  16.6839  16.8472  17.2479
    17.3322  17.3733  17.4263  17.5583  17.9458

     occupation numbers 
     1.0000   1.0000   1.0000   1.0000   1.0000   1.0000   1.0000   1.0000
     1.0000   1.0000   1.0000   1.0000   1.0000   1.0000   1.0000   1.0000
     1.0000   1.0000   1.0000   1.0000   1.0000   1.0000   1.0000   1.0000
     1.0000   1.0000   1.0000   1.0000   1.0000   1.0000   1.0000   1.0000
     1.0000   1.0000   1.0000   1.0000   1.0000   1.0000   1.0000   1.0000
     1.0000   1.0000   1.0000   1.0000   1.0000   1.0000   1.0000   1.0000
     1.0000   1.0000   1.0000   1.0000   1.0000   1.0000   1.0000   1.0000
     1.0000   1.0000   1.0000   1.0000   1.0000   1.0000   1.0000   1.0000
     1.0000   1.0000   1.0000   1.0000   1.0000   1.0000   1.0000   1.0000
     1.0000   1.0000   1.0000   1.0000   1.0000   1.0000   1.0000   1.0000
     1.0000   1.0000   1.0000   1.0000   0.3748   0.0207   0.0000   0.0000
     0.0000   0.0000   0.0000   0.0000   0.0000   0.0000   0.0000   0.0000
     0.0000   0.0000   0.0000   0.0000   0.0000

          k = 0.0000 0.4000 0.2828 ( 10090 PWs)   bands (ev):

   -49.0083 -49.0077 -49.0073 -49.0066 -23.2925 -23.2894 -23.2865 -23.2832
   -23.2731 -23.2719 -23.2684 -23.2662 -23.2611 -23.2580 -23.2497 -23.2485
   -21.9881 -21.9829 -21.9784 -21.9746  -6.5854  -6.5330  -6.4132  -6.2319
    -5.9640  -5.9608  -5.9244  -5.8597  -5.7643  -5.7313  -5.6925  -5.6920
    -4.1132  -4.1061  -4.0985  -4.0901  -3.9251  -3.9097  -3.8824  -3.8644
    -3.6829  -3.6633  -3.6530  -3.6367   6.0431   6.0499   6.1127   6.1211
     6.1267   6.1364   6.5028   6.5390   6.5574   6.7441   6.7509   6.7844
     6.8423   6.9387   6.9888   6.9987   7.0782   7.1667   7.1805   7.4856
     7.4943   7.5234   7.7518   7.8808   9.0706   9.1225   9.1423   9.1826
     9.3578   9.3950   9.4167   9.5288   9.5467   9.5624   9.6570   9.7402
    13.1370  13.2285  13.2366  13.2561  13.6829  13.7293  13.8076  13.8209
    14.1319  14.1755  14.1757  14.2018  17.1053  17.2917  17.3794  17.3856
    17.3966  17.3997  17.5337  17.5402  17.8406

     occupation numbers 
     1.0000   1.0000   1.0000   1.0000   1.0000   1.0000   1.0000   1.0000
     1.0000   1.0000   1.0000   1.0000   1.0000   1.0000   1.0000   1.0000
     1.0000   1.0000   1.0000   1.0000   1.0000   1.0000   1.0000   1.0000
     1.0000   1.0000   1.0000   1.0000   1.0000   1.0000   1.0000   1.0000
     1.0000   1.0000   1.0000   1.0000   1.0000   1.0000   1.0000   1.0000
     1.0000   1.0000   1.0000   1.0000   1.0000   1.0000   1.0000   1.0000
     1.0000   1.0000   1.0000   1.0000   1.0000   1.0000   1.0000   1.0000
     1.0000   1.0000   1.0000   1.0000   1.0000   1.0000   1.0000   1.0000
     1.0000   1.0000   1.0000   1.0000   1.0000   1.0000   1.0000   1.0000
     1.0000   1.0000   1.0000   1.0000   1.0000   1.0000   1.0000   1.0000
     1.0000   1.0000   1.0000   1.0000   0.0003   0.0000   0.0000   0.0000
     0.0000   0.0000   0.0000   0.0000   0.0000   0.0000   0.0000   0.0000
     0.0000   0.0000   0.0000   0.0000   0.0000

          k = 0.0000 0.4000 0.4243 ( 10090 PWs)   bands (ev):

   -49.0083 -49.0077 -49.0073 -49.0066 -23.2925 -23.2894 -23.2865 -23.2832
   -23.2731 -23.2719 -23.2684 -23.2662 -23.2611 -23.2580 -23.2497 -23.2485
   -21.9881 -21.9829 -21.9784 -21.9746  -6.5854  -6.5330  -6.4132  -6.2319
    -5.9640  -5.9608  -5.9244  -5.8597  -5.7643  -5.7313  -5.6925  -5.6920
    -4.1132  -4.1061  -4.0985  -4.0901  -3.9251  -3.9097  -3.8824  -3.8644
    -3.6829  -3.6633  -3.6530  -3.6367   6.0431   6.0499   6.1127   6.1211
     6.1267   6.1364   6.5028   6.5390   6.5574   6.7441   6.7509   6.7844
     6.8423   6.9387   6.9888   6.9987   7.0782   7.1667   7.1805   7.4856
     7.4943   7.5234   7.7518   7.8808   9.0706   9.1225   9.1423   9.1826
     9.3578   9.3950   9.4167   9.5288   9.5467   9.5624   9.6570   9.7402
    13.1370  13.2285  13.2366  13.2561  13.6829  13.7293  13.8076  13.8209
    14.1319  14.1755  14.1757  14.2018  17.1053  17.2917  17.3794  17.3856
    17.3966  17.3997  17.5337  17.5402  17.8406

     occupation numbers 
     1.0000   1.0000   1.0000   1.0000   1.0000   1.0000   1.0000   1.0000
     1.0000   1.0000   1.0000   1.0000   1.0000   1.0000   1.0000   1.0000
     1.0000   1.0000   1.0000   1.0000   1.0000   1.0000   1.0000   1.0000
     1.0000   1.0000   1.0000   1.0000   1.0000   1.0000   1.0000   1.0000
     1.0000   1.0000   1.0000   1.0000   1.0000   1.0000   1.0000   1.0000
     1.0000   1.0000   1.0000   1.0000   1.0000   1.0000   1.0000   1.0000
     1.0000   1.0000   1.0000   1.0000   1.0000   1.0000   1.0000   1.0000
     1.0000   1.0000   1.0000   1.0000   1.0000   1.0000   1.0000   1.0000
     1.0000   1.0000   1.0000   1.0000   1.0000   1.0000   1.0000   1.0000
     1.0000   1.0000   1.0000   1.0000   1.0000   1.0000   1.0000   1.0000
     1.0000   1.0000   1.0000   1.0000   0.0003   0.0000   0.0000   0.0000
     0.0000   0.0000   0.0000   0.0000   0.0000   0.0000   0.0000   0.0000
     0.0000   0.0000   0.0000   0.0000   0.0000

          k = 0.0000 0.4000 0.5657 ( 10078 PWs)   bands (ev):

   -49.0085 -49.0076 -49.0074 -49.0063 -23.3079 -23.3027 -23.2930 -23.2871
   -23.2741 -23.2709 -23.2697 -23.2639 -23.2505 -23.2477 -23.2412 -23.2388
   -21.9924 -21.9815 -21.9787 -21.9715  -6.6805  -6.5761  -6.5330  -6.1146
    -5.9934  -5.9920  -5.9057  -5.8042  -5.7807  -5.6881  -5.6244  -5.6223
    -4.1670  -4.1109  -4.1024  -4.0545  -3.9216  -3.8941  -3.8221  -3.7834
    -3.7444  -3.7012  -3.6623  -3.6375   5.5469   5.5550   6.0528   6.0601
     6.1063   6.1294   6.3445   6.4476   6.4858   6.5553   6.7274   6.8257
     6.8549   6.9694   6.9929   7.0474   7.1979   7.4279   7.4387   7.5186
     7.8201   7.9035   8.3213   8.4807   8.8656   8.9227   9.1039   9.1224
     9.1678   9.3034   9.3319   9.4583   9.5251   9.6602   9.6695   9.8256
    12.7732  12.9091  13.1361  13.3022  13.5272  13.5955  13.9993  14.1836
    14.2168  14.2627  14.4809  14.5644  16.3714  16.6839  16.8472  17.2479
    17.3322  17.3733  17.4263  17.5583  17.9458

     occupation numbers 
     1.0000   1.0000   1.0000   1.0000   1.0000   1.0000   1.0000   1.0000
     1.0000   1.0000   1.0000   1.0000   1.0000   1.0000   1.0000   1.0000
     1.0000   1.0000   1.0000   1.0000   1.0000   1.0000   1.0000   1.0000
     1.0000   1.0000   1.0000   1.0000   1.0000   1.0000   1.0000   1.0000
     1.0000   1.0000   1.0000   1.0000   1.0000   1.0000   1.0000   1.0000
     1.0000   1.0000   1.0000   1.0000   1.0000   1.0000   1.0000   1.0000
     1.0000   1.0000   1.0000   1.0000   1.0000   1.0000   1.0000   1.0000
     1.0000   1.0000   1.0000   1.0000   1.0000   1.0000   1.0000   1.0000
     1.0000   1.0000   1.0000   1.0000   1.0000   1.0000   1.0000   1.0000
     1.0000   1.0000   1.0000   1.0000   1.0000   1.0000   1.0000   1.0000
     1.0000   1.0000   1.0000   1.0000   0.3748   0.0207   0.0000   0.0000
     0.0000   0.0000   0.0000   0.0000   0.0000   0.0000   0.0000   0.0000
     0.0000   0.0000   0.0000   0.0000   0.0000

          k = 0.0000 0.6000 0.0000 ( 10072 PWs)   bands (ev):

   -49.0085 -49.0078 -49.0071 -49.0063 -23.3153 -23.3101 -23.2939 -23.2865
   -23.2745 -23.2706 -23.2704 -23.2631 -23.2509 -23.2472 -23.2334 -23.2313
   -21.9940 -21.9826 -21.9771 -21.9704  -6.7263  -6.6368  -6.5428  -6.0806
    -6.0038  -5.9940  -5.9061  -5.8101  -5.7799  -5.6315  -5.5929  -5.5865
    -4.1985  -4.1225  -4.0946  -4.0273  -3.9148  -3.8527  -3.7974  -3.7972
    -3.7198  -3.7104  -3.7045  -3.6468   5.3112   5.3172   6.0498   6.0731
     6.1038   6.1334   6.2867   6.3431   6.4634   6.4871   6.7796   6.7981
     6.8601   6.9166   6.9943   7.0313   7.3677   7.5039   7.6266   7.6453
     7.8983   8.1618   8.4669   8.6835   8.7585   8.9169   8.9442   9.1160
     9.2080   9.2430   9.3288   9.4257   9.5144   9.6670   9.6681   9.8512
    12.6398  12.8034  13.1117  13.3001  13.4645  13.5273  13.9991  14.2867
    14.2884  14.4208  14.5518  14.7439  16.0267  16.3117  16.7287  17.1629
    17.3391  17.3650  17.4207  17.4976  17.9056

     occupation numbers 
     1.0000   1.0000   1.0000   1.0000   1.0000   1.0000   1.0000   1.0000
     1.0000   1.0000   1.0000   1.0000   1.0000   1.0000   1.0000   1.0000
     1.0000   1.0000   1.0000   1.0000   1.0000   1.0000   1.0000   1.0000
     1.0000   1.0000   1.0000   1.0000   1.0000   1.0000   1.0000   1.0000
     1.0000   1.0000   1.0000   1.0000   1.0000   1.0000   1.0000   1.0000
     1.0000   1.0000   1.0000   1.0000   1.0000   1.0000   1.0000   1.0000
     1.0000   1.0000   1.0000   1.0000   1.0000   1.0000   1.0000   1.0000
     1.0000   1.0000   1.0000   1.0000   1.0000   1.0000   1.0000   1.0000
     1.0000   1.0000   1.0000   1.0000   1.0000   1.0000   1.0000   1.0000
     1.0000   1.0000   1.0000   1.0000   1.0000   1.0000   1.0000   1.0000
     1.0000   1.0000   1.0000   1.0000   0.9284   0.3738   0.0000   0.0000
     0.0000   0.0000   0.0000   0.0000   0.0000   0.0000   0.0000   0.0000
     0.0000   0.0000   0.0000   0.0000   0.0000

          k = 0.0000 0.6000 0.1414 ( 10078 PWs)   bands (ev):

   -49.0085 -49.0076 -49.0074 -49.0063 -23.3079 -23.3027 -23.2930 -23.2871
   -23.2741 -23.2709 -23.2697 -23.2639 -23.2505 -23.2477 -23.2412 -23.2388
   -21.9924 -21.9815 -21.9787 -21.9715  -6.6805  -6.5761  -6.5330  -6.1146
    -5.9934  -5.9920  -5.9057  -5.8042  -5.7807  -5.6881  -5.6244  -5.6223
    -4.1670  -4.1109  -4.1024  -4.0545  -3.9216  -3.8941  -3.8221  -3.7834
    -3.7444  -3.7012  -3.6623  -3.6375   5.5469   5.5550   6.0528   6.0601
     6.1063   6.1294   6.3445   6.4476   6.4858   6.5553   6.7274   6.8257
     6.8549   6.9694   6.9929   7.0474   7.1979   7.4279   7.4387   7.5186
     7.8201   7.9035   8.3213   8.4807   8.8656   8.9227   9.1039   9.1224
     9.1678   9.3034   9.3319   9.4583   9.5251   9.6602   9.6695   9.8256
    12.7732  12.9091  13.1361  13.3022  13.5272  13.5955  13.9993  14.1836
    14.2168  14.2627  14.4809  14.5644  16.3714  16.6839  16.8472  17.2479
    17.3322  17.3733  17.4263  17.5583  17.9458

     occupation numbers 
     1.0000   1.0000   1.0000   1.0000   1.0000   1.0000   1.0000   1.0000
     1.0000   1.0000   1.0000   1.0000   1.0000   1.0000   1.0000   1.0000
     1.0000   1.0000   1.0000   1.0000   1.0000   1.0000   1.0000   1.0000
     1.0000   1.0000   1.0000   1.0000   1.0000   1.0000   1.0000   1.0000
     1.0000   1.0000   1.0000   1.0000   1.0000   1.0000   1.0000   1.0000
     1.0000   1.0000   1.0000   1.0000   1.0000   1.0000   1.0000   1.0000
     1.0000   1.0000   1.0000   1.0000   1.0000   1.0000   1.0000   1.0000
     1.0000   1.0000   1.0000   1.0000   1.0000   1.0000   1.0000   1.0000
     1.0000   1.0000   1.0000   1.0000   1.0000   1.0000   1.0000   1.0000
     1.0000   1.0000   1.0000   1.0000   1.0000   1.0000   1.0000   1.0000
     1.0000   1.0000   1.0000   1.0000   0.3748   0.0207   0.0000   0.0000
     0.0000   0.0000   0.0000   0.0000   0.0000   0.0000   0.0000   0.0000
     0.0000   0.0000   0.0000   0.0000   0.0000

          k = 0.0000 0.6000 0.2828 ( 10090 PWs)   bands (ev):

   -49.0083 -49.0077 -49.0073 -49.0066 -23.2925 -23.2894 -23.2865 -23.2832
   -23.2731 -23.2719 -23.2684 -23.2662 -23.2611 -23.2580 -23.2497 -23.2485
   -21.9881 -21.9829 -21.9784 -21.9746  -6.5854  -6.5330  -6.4132  -6.2319
    -5.9640  -5.9608  -5.9244  -5.8597  -5.7643  -5.7313  -5.6925  -5.6920
    -4.1132  -4.1061  -4.0985  -4.0901  -3.9251  -3.9097  -3.8824  -3.8644
    -3.6829  -3.6633  -3.6530  -3.6367   6.0431   6.0499   6.1127   6.1211
     6.1267   6.1364   6.5028   6.5390   6.5574   6.7441   6.7509   6.7844
     6.8423   6.9387   6.9888   6.9987   7.0782   7.1667   7.1805   7.4856
     7.4943   7.5234   7.7518   7.8808   9.0706   9.1225   9.1423   9.1826
     9.3578   9.3950   9.4167   9.5288   9.5467   9.5624   9.6570   9.7402
    13.1370  13.2285  13.2366  13.2561  13.6829  13.7293  13.8076  13.8209
    14.1319  14.1755  14.1757  14.2018  17.1053  17.2917  17.3794  17.3856
    17.3966  17.3997  17.5337  17.5402  17.8406

     occupation numbers 
     1.0000   1.0000   1.0000   1.0000   1.0000   1.0000   1.0000   1.0000
     1.0000   1.0000   1.0000   1.0000   1.0000   1.0000   1.0000   1.0000
     1.0000   1.0000   1.0000   1.0000   1.0000   1.0000   1.0000   1.0000
     1.0000   1.0000   1.0000   1.0000   1.0000   1.0000   1.0000   1.0000
     1.0000   1.0000   1.0000   1.0000   1.0000   1.0000   1.0000   1.0000
     1.0000   1.0000   1.0000   1.0000   1.0000   1.0000   1.0000   1.0000
     1.0000   1.0000   1.0000   1.0000   1.0000   1.0000   1.0000   1.0000
     1.0000   1.0000   1.0000   1.0000   1.0000   1.0000   1.0000   1.0000
     1.0000   1.0000   1.0000   1.0000   1.0000   1.0000   1.0000   1.0000
     1.0000   1.0000   1.0000   1.0000   1.0000   1.0000   1.0000   1.0000
     1.0000   1.0000   1.0000   1.0000   0.0003   0.0000   0.0000   0.0000
     0.0000   0.0000   0.0000   0.0000   0.0000   0.0000   0.0000   0.0000
     0.0000   0.0000   0.0000   0.0000   0.0000

          k = 0.0000 0.6000 0.4243 ( 10090 PWs)   bands (ev):

   -49.0083 -49.0077 -49.0073 -49.0066 -23.2925 -23.2894 -23.2865 -23.2832
   -23.2731 -23.2719 -23.2684 -23.2662 -23.2611 -23.2580 -23.2497 -23.2485
   -21.9881 -21.9829 -21.9784 -21.9746  -6.5854  -6.5330  -6.4132  -6.2319
    -5.9640  -5.9608  -5.9244  -5.8597  -5.7643  -5.7313  -5.6925  -5.6920
    -4.1132  -4.1061  -4.0985  -4.0901  -3.9251  -3.9097  -3.8824  -3.8644
    -3.6829  -3.6633  -3.6530  -3.6367   6.0431   6.0499   6.1127   6.1211
     6.1267   6.1364   6.5028   6.5390   6.5574   6.7441   6.7509   6.7844
     6.8423   6.9387   6.9888   6.9987   7.0782   7.1667   7.1805   7.4856
     7.4943   7.5234   7.7518   7.8808   9.0706   9.1225   9.1423   9.1826
     9.3578   9.3950   9.4167   9.5288   9.5467   9.5624   9.6570   9.7402
    13.1370  13.2285  13.2366  13.2561  13.6829  13.7293  13.8076  13.8209
    14.1319  14.1755  14.1757  14.2018  17.1053  17.2917  17.3794  17.3856
    17.3966  17.3997  17.5337  17.5402  17.8406

     occupation numbers 
     1.0000   1.0000   1.0000   1.0000   1.0000   1.0000   1.0000   1.0000
     1.0000   1.0000   1.0000   1.0000   1.0000   1.0000   1.0000   1.0000
     1.0000   1.0000   1.0000   1.0000   1.0000   1.0000   1.0000   1.0000
     1.0000   1.0000   1.0000   1.0000   1.0000   1.0000   1.0000   1.0000
     1.0000   1.0000   1.0000   1.0000   1.0000   1.0000   1.0000   1.0000
     1.0000   1.0000   1.0000   1.0000   1.0000   1.0000   1.0000   1.0000
     1.0000   1.0000   1.0000   1.0000   1.0000   1.0000   1.0000   1.0000
     1.0000   1.0000   1.0000   1.0000   1.0000   1.0000   1.0000   1.0000
     1.0000   1.0000   1.0000   1.0000   1.0000   1.0000   1.0000   1.0000
     1.0000   1.0000   1.0000   1.0000   1.0000   1.0000   1.0000   1.0000
     1.0000   1.0000   1.0000   1.0000   0.0003   0.0000   0.0000   0.0000
     0.0000   0.0000   0.0000   0.0000   0.0000   0.0000   0.0000   0.0000
     0.0000   0.0000   0.0000   0.0000   0.0000

          k = 0.0000 0.6000 0.5657 ( 10078 PWs)   bands (ev):

   -49.0085 -49.0076 -49.0074 -49.0063 -23.3079 -23.3027 -23.2930 -23.2871
   -23.2741 -23.2709 -23.2697 -23.2639 -23.2505 -23.2477 -23.2412 -23.2388
   -21.9924 -21.9815 -21.9787 -21.9715  -6.6805  -6.5761  -6.5330  -6.1146
    -5.9934  -5.9920  -5.9057  -5.8042  -5.7807  -5.6881  -5.6244  -5.6223
    -4.1670  -4.1109  -4.1024  -4.0545  -3.9216  -3.8941  -3.8221  -3.7834
    -3.7444  -3.7012  -3.6623  -3.6375   5.5469   5.5550   6.0528   6.0601
     6.1063   6.1294   6.3445   6.4476   6.4858   6.5553   6.7274   6.8257
     6.8549   6.9694   6.9929   7.0474   7.1979   7.4279   7.4387   7.5186
     7.8201   7.9035   8.3213   8.4807   8.8656   8.9227   9.1039   9.1224
     9.1678   9.3034   9.3319   9.4583   9.5251   9.6602   9.6695   9.8256
    12.7732  12.9091  13.1361  13.3022  13.5272  13.5955  13.9993  14.1836
    14.2168  14.2627  14.4809  14.5644  16.3714  16.6839  16.8472  17.2479
    17.3322  17.3733  17.4263  17.5583  17.9458

     occupation numbers 
     1.0000   1.0000   1.0000   1.0000   1.0000   1.0000   1.0000   1.0000
     1.0000   1.0000   1.0000   1.0000   1.0000   1.0000   1.0000   1.0000
     1.0000   1.0000   1.0000   1.0000   1.0000   1.0000   1.0000   1.0000
     1.0000   1.0000   1.0000   1.0000   1.0000   1.0000   1.0000   1.0000
     1.0000   1.0000   1.0000   1.0000   1.0000   1.0000   1.0000   1.0000
     1.0000   1.0000   1.0000   1.0000   1.0000   1.0000   1.0000   1.0000
     1.0000   1.0000   1.0000   1.0000   1.0000   1.0000   1.0000   1.0000
     1.0000   1.0000   1.0000   1.0000   1.0000   1.0000   1.0000   1.0000
     1.0000   1.0000   1.0000   1.0000   1.0000   1.0000   1.0000   1.0000
     1.0000   1.0000   1.0000   1.0000   1.0000   1.0000   1.0000   1.0000
     1.0000   1.0000   1.0000   1.0000   0.3748   0.0207   0.0000   0.0000
     0.0000   0.0000   0.0000   0.0000   0.0000   0.0000   0.0000   0.0000
     0.0000   0.0000   0.0000   0.0000   0.0000

          k = 0.0000 0.8000 0.0000 ( 10076 PWs)   bands (ev):

   -49.0092 -49.0077 -49.0073 -49.0056 -23.3207 -23.3102 -23.3070 -23.3049
   -23.2934 -23.2894 -23.2484 -23.2440 -23.2351 -23.2318 -23.2296 -23.2283
   -22.0073 -21.9809 -21.9772 -21.9632  -6.8732  -6.7401  -6.4418  -6.1418
    -6.0881  -5.9748  -5.8338  -5.7888  -5.6265  -5.4775  -5.4750  -5.4043
    -4.2415  -4.2229  -4.0446  -4.0184  -4.0104  -3.9887  -3.9552  -3.8781
    -3.8560  -3.6964  -3.5936  -3.5898   5.2844   5.3042   5.4170   5.4404
     5.5456   5.6895   5.8003   6.1859   6.3291   6.3923   6.8951   7.2551
     7.2622   7.3132   7.4371   7.4641   7.6245   7.6266   7.7260   8.5082
     8.5180   8.5457   8.6933   8.7196   8.7566   8.8972   8.9596   9.1088
     9.1726   9.2684   9.4262   9.5333   9.9171   9.9379   9.9761   9.9970
    11.9575  12.0757  12.1940  12.3393  13.9980  14.0295  14.0572  14.2676
    14.7567  14.8045  15.0034  15.0468  15.8183  16.0396  16.0656  16.0728
    16.3873  16.4345  16.4731  17.3195  17.4648

     occupation numbers 
     1.0000   1.0000   1.0000   1.0000   1.0000   1.0000   1.0000   1.0000
     1.0000   1.0000   1.0000   1.0000   1.0000   1.0000   1.0000   1.0000
     1.0000   1.0000   1.0000   1.0000   1.0000   1.0000   1.0000   1.0000
     1.0000   1.0000   1.0000   1.0000   1.0000   1.0000   1.0000   1.0000
     1.0000   1.0000   1.0000   1.0000   1.0000   1.0000   1.0000   1.0000
     1.0000   1.0000   1.0000   1.0000   1.0000   1.0000   1.0000   1.0000
     1.0000   1.0000   1.0000   1.0000   1.0000   1.0000   1.0000   1.0000
     1.0000   1.0000   1.0000   1.0000   1.0000   1.0000   1.0000   1.0000
     1.0000   1.0000   1.0000   1.0000   1.0000   1.0000   1.0000   1.0000
     1.0000   1.0000   1.0000   1.0000   1.0000   1.0000   1.0000   1.0000
     1.0000   1.0000   1.0000   1.0000   0.0000   0.0000   0.0000   0.0000
     0.0000   0.0000   0.0000   0.0000   0.0000   0.0000   0.0000   0.0000
     0.0000   0.0000   0.0000   0.0000   0.0000

          k = 0.0000 0.8000 0.1414 ( 10060 PWs)   bands (ev):

   -49.0092 -49.0080 -49.0069 -49.0055 -23.3133 -23.3091 -23.3053 -23.2997
   -23.2930 -23.2897 -23.2482 -23.2449 -23.2432 -23.2365 -23.2314 -23.2286
   -22.0047 -21.9833 -21.9758 -21.9646  -6.8476  -6.7259  -6.3727  -6.1272
    -6.0806  -5.9945  -5.7923  -5.7783  -5.7108  -5.5430  -5.4920  -5.4552
    -4.2216  -4.1836  -4.0445  -4.0258  -4.0065  -3.9886  -3.9113  -3.8682
    -3.8587  -3.7370  -3.6231  -3.6142   5.4192   5.4381   5.4635   5.5390
     5.5646   5.7412   5.8482   6.2205   6.3818   6.3885   6.9651   7.0944
     7.1380   7.3277   7.3682   7.4962   7.5885   7.6114   7.6515   8.2992
     8.4323   8.4810   8.5525   8.6861   8.8927   8.9490   9.0230   9.0661
     9.1985   9.2070   9.3837   9.3962   9.8739   9.9028   9.9717   9.9766
    12.1495  12.2462  12.2876  12.3251  13.8823  14.0433  14.0688  14.1265
    14.7962  14.8170  14.8893  14.9807  16.0534  16.0672  16.0702  16.1993
    16.5212  16.5663  16.8335  17.5263  17.6034

     occupation numbers 
     1.0000   1.0000   1.0000   1.0000   1.0000   1.0000   1.0000   1.0000
     1.0000   1.0000   1.0000   1.0000   1.0000   1.0000   1.0000   1.0000
     1.0000   1.0000   1.0000   1.0000   1.0000   1.0000   1.0000   1.0000
     1.0000   1.0000   1.0000   1.0000   1.0000   1.0000   1.0000   1.0000
     1.0000   1.0000   1.0000   1.0000   1.0000   1.0000   1.0000   1.0000
     1.0000   1.0000   1.0000   1.0000   1.0000   1.0000   1.0000   1.0000
     1.0000   1.0000   1.0000   1.0000   1.0000   1.0000   1.0000   1.0000
     1.0000   1.0000   1.0000   1.0000   1.0000   1.0000   1.0000   1.0000
     1.0000   1.0000   1.0000   1.0000   1.0000   1.0000   1.0000   1.0000
     1.0000   1.0000   1.0000   1.0000   1.0000   1.0000   1.0000   1.0000
     1.0000   1.0000   1.0000   1.0000   0.0000   0.0000   0.0000   0.0000
     0.0000   0.0000   0.0000   0.0000   0.0000   0.0000   0.0000   0.0000
     0.0000   0.0000   0.0000   0.0000   0.0000

          k = 0.0000 0.8000 0.2828 ( 10071 PWs)   bands (ev):

   -49.0088 -49.0083 -49.0066 -49.0061 -23.3086 -23.3068 -23.2920 -23.2914
   -23.2907 -23.2807 -23.2652 -23.2573 -23.2464 -23.2447 -23.2305 -23.2295
   -21.9980 -21.9898 -21.9724 -21.9681  -6.7852  -6.7294  -6.1932  -6.0652
    -6.0594  -6.0286  -5.8838  -5.8280  -5.6953  -5.6130  -5.5713  -5.5546
    -4.1885  -4.1104  -4.0774  -4.0471  -3.9694  -3.9394  -3.8994  -3.8462
    -3.8102  -3.7864  -3.7020  -3.6874   5.4250   5.4322   5.5908   5.6022
     5.8884   6.0529   6.1576   6.3617   6.5624   6.5902   6.7679   6.8323
     6.9121   7.1256   7.3893   7.4484   7.4643   7.5634   7.6992   7.7745
     8.0731   8.0851   8.5938   8.6946   8.9288   9.0416   9.1456   9.2017
     9.2162   9.2831   9.3056   9.4274   9.6581   9.7208   9.9751   9.9773
    12.2362  12.2869  12.7707  12.8310  13.4166  13.4968  14.2566  14.3283
    14.5604  14.6130  14.8615  14.9261  16.0688  16.0689  16.6413  16.6842
    16.8879  17.0945  17.1752  17.3414  17.3669

     occupation numbers 
     1.0000   1.0000   1.0000   1.0000   1.0000   1.0000   1.0000   1.0000
     1.0000   1.0000   1.0000   1.0000   1.0000   1.0000   1.0000   1.0000
     1.0000   1.0000   1.0000   1.0000   1.0000   1.0000   1.0000   1.0000
     1.0000   1.0000   1.0000   1.0000   1.0000   1.0000   1.0000   1.0000
     1.0000   1.0000   1.0000   1.0000   1.0000   1.0000   1.0000   1.0000
     1.0000   1.0000   1.0000   1.0000   1.0000   1.0000   1.0000   1.0000
     1.0000   1.0000   1.0000   1.0000   1.0000   1.0000   1.0000   1.0000
     1.0000   1.0000   1.0000   1.0000   1.0000   1.0000   1.0000   1.0000
     1.0000   1.0000   1.0000   1.0000   1.0000   1.0000   1.0000   1.0000
     1.0000   1.0000   1.0000   1.0000   1.0000   1.0000   1.0000   1.0000
     1.0000   1.0000   1.0000   1.0000   0.9927   0.7273   0.0000   0.0000
     0.0000   0.0000   0.0000   0.0000   0.0000   0.0000   0.0000   0.0000
     0.0000   0.0000   0.0000   0.0000   0.0000

          k = 0.0000 0.8000 0.4243 ( 10071 PWs)   bands (ev):

   -49.0088 -49.0083 -49.0066 -49.0061 -23.3086 -23.3068 -23.2920 -23.2914
   -23.2907 -23.2807 -23.2652 -23.2573 -23.2464 -23.2447 -23.2305 -23.2295
   -21.9980 -21.9898 -21.9724 -21.9681  -6.7852  -6.7294  -6.1932  -6.0652
    -6.0594  -6.0286  -5.8838  -5.8280  -5.6953  -5.6130  -5.5713  -5.5546
    -4.1885  -4.1104  -4.0774  -4.0471  -3.9694  -3.9394  -3.8994  -3.8462
    -3.8102  -3.7864  -3.7020  -3.6874   5.4250   5.4322   5.5908   5.6022
     5.8884   6.0529   6.1576   6.3617   6.5624   6.5902   6.7679   6.8323
     6.9121   7.1256   7.3893   7.4484   7.4643   7.5634   7.6992   7.7745
     8.0731   8.0851   8.5938   8.6946   8.9288   9.0416   9.1456   9.2017
     9.2162   9.2831   9.3056   9.4274   9.6581   9.7208   9.9751   9.9773
    12.2362  12.2869  12.7707  12.8310  13.4166  13.4968  14.2566  14.3283
    14.5604  14.6130  14.8615  14.9261  16.0688  16.0689  16.6413  16.6842
    16.8879  17.0945  17.1752  17.3414  17.3669

     occupation numbers 
     1.0000   1.0000   1.0000   1.0000   1.0000   1.0000   1.0000   1.0000
     1.0000   1.0000   1.0000   1.0000   1.0000   1.0000   1.0000   1.0000
     1.0000   1.0000   1.0000   1.0000   1.0000   1.0000   1.0000   1.0000
     1.0000   1.0000   1.0000   1.0000   1.0000   1.0000   1.0000   1.0000
     1.0000   1.0000   1.0000   1.0000   1.0000   1.0000   1.0000   1.0000
     1.0000   1.0000   1.0000   1.0000   1.0000   1.0000   1.0000   1.0000
     1.0000   1.0000   1.0000   1.0000   1.0000   1.0000   1.0000   1.0000
     1.0000   1.0000   1.0000   1.0000   1.0000   1.0000   1.0000   1.0000
     1.0000   1.0000   1.0000   1.0000   1.0000   1.0000   1.0000   1.0000
     1.0000   1.0000   1.0000   1.0000   1.0000   1.0000   1.0000   1.0000
     1.0000   1.0000   1.0000   1.0000   0.9927   0.7273   0.0000   0.0000
     0.0000   0.0000   0.0000   0.0000   0.0000   0.0000   0.0000   0.0000
     0.0000   0.0000   0.0000   0.0000   0.0000

          k = 0.0000 0.8000 0.5657 ( 10060 PWs)   bands (ev):

   -49.0092 -49.0080 -49.0069 -49.0055 -23.3133 -23.3091 -23.3053 -23.2997
   -23.2930 -23.2897 -23.2482 -23.2449 -23.2432 -23.2365 -23.2314 -23.2286
   -22.0047 -21.9833 -21.9758 -21.9646  -6.8476  -6.7259  -6.3727  -6.1272
    -6.0806  -5.9945  -5.7923  -5.7783  -5.7108  -5.5430  -5.4920  -5.4552
    -4.2216  -4.1836  -4.0445  -4.0258  -4.0065  -3.9886  -3.9113  -3.8682
    -3.8587  -3.7370  -3.6231  -3.6142   5.4192   5.4381   5.4635   5.5390
     5.5646   5.7412   5.8482   6.2205   6.3818   6.3885   6.9651   7.0944
     7.1380   7.3277   7.3682   7.4962   7.5885   7.6114   7.6515   8.2992
     8.4323   8.4810   8.5525   8.6861   8.8927   8.9490   9.0230   9.0661
     9.1985   9.2070   9.3837   9.3962   9.8739   9.9028   9.9717   9.9766
    12.1495  12.2462  12.2876  12.3251  13.8823  14.0433  14.0688  14.1265
    14.7962  14.8170  14.8893  14.9807  16.0534  16.0672  16.0702  16.1993
    16.5212  16.5663  16.8335  17.5263  17.6034

     occupation numbers 
     1.0000   1.0000   1.0000   1.0000   1.0000   1.0000   1.0000   1.0000
     1.0000   1.0000   1.0000   1.0000   1.0000   1.0000   1.0000   1.0000
     1.0000   1.0000   1.0000   1.0000   1.0000   1.0000   1.0000   1.0000
     1.0000   1.0000   1.0000   1.0000   1.0000   1.0000   1.0000   1.0000
     1.0000   1.0000   1.0000   1.0000   1.0000   1.0000   1.0000   1.0000
     1.0000   1.0000   1.0000   1.0000   1.0000   1.0000   1.0000   1.0000
     1.0000   1.0000   1.0000   1.0000   1.0000   1.0000   1.0000   1.0000
     1.0000   1.0000   1.0000   1.0000   1.0000   1.0000   1.0000   1.0000
     1.0000   1.0000   1.0000   1.0000   1.0000   1.0000   1.0000   1.0000
     1.0000   1.0000   1.0000   1.0000   1.0000   1.0000   1.0000   1.0000
     1.0000   1.0000   1.0000   1.0000   0.0000   0.0000   0.0000   0.0000
     0.0000   0.0000   0.0000   0.0000   0.0000   0.0000   0.0000   0.0000
     0.0000   0.0000   0.0000   0.0000   0.0000

          k = 0.2000 0.0000 0.0000 ( 10076 PWs)   bands (ev):

   -49.0092 -49.0077 -49.0073 -49.0056 -23.3207 -23.3085 -23.3070 -23.3046
[...]
    17.2307  17.4345  17.5844  17.6362  17.9251

     occupation numbers 
     1.0000   1.0000   1.0000   1.0000   1.0000   1.0000   1.0000   1.0000
     1.0000   1.0000   1.0000   1.0000   1.0000   1.0000   1.0000   1.0000
     1.0000   1.0000   1.0000   1.0000   1.0000   1.0000   1.0000   1.0000
     1.0000   1.0000   1.0000   1.0000   1.0000   1.0000   1.0000   1.0000
     1.0000   1.0000   1.0000   1.0000   1.0000   1.0000   1.0000   1.0000
     1.0000   1.0000   1.0000   1.0000   1.0000   1.0000   1.0000   1.0000
     1.0000   1.0000   1.0000   1.0000   1.0000   1.0000   1.0000   1.0000
     1.0000   1.0000   1.0000   1.0000   1.0000   1.0000   1.0000   1.0000
     1.0000   1.0000   1.0000   1.0000   1.0000   1.0000   1.0000   1.0000
     1.0000   1.0000   1.0000   1.0000   1.0000   1.0000   1.0000   1.0000
     1.0000   1.0000   0.9525   0.8831   0.1009   0.0000   0.0000   0.0000
     0.0000   0.0000   0.0000   0.0000   0.0000   0.0000   0.0000   0.0000
     0.0000   0.0000   0.0000   0.0000   0.0000

          k = 0.8000 0.6000 0.2828 ( 10093 PWs)   bands (ev):

   -49.0081 -49.0076 -49.0074 -49.0069 -23.3070 -23.3039 -23.2891 -23.2879
   -23.2835 -23.2820 -23.2614 -23.2588 -23.2542 -23.2529 -23.2350 -23.2339
   -21.9861 -21.9819 -21.9782 -21.9752  -6.6770  -6.5648  -6.5531  -6.3509
    -5.9652  -5.9035  -5.8409  -5.8247  -5.7935  -5.7157  -5.6529  -5.6390
    -4.1176  -4.1013  -4.0287  -4.0144  -3.9818  -3.9137  -3.7821  -3.7542
    -3.6722  -3.6543  -3.6508  -3.6291   5.4949   5.4974   6.0428   6.0772
     6.1215   6.1244   6.3031   6.3358   6.5135   6.6515   6.7681   6.8547
     6.9460   6.9943   7.0329   7.1784   7.2310   7.3124   7.4262   7.4568
     7.6502   7.8342   8.2526   8.3509   8.8602   8.9409   8.9794   9.0576
     9.2079   9.2301   9.2726   9.3030   9.4450   9.4486   9.6837   9.7692
    12.8630  13.3046  13.4606  13.4815  13.6090  13.6717  13.8691  14.0217
    14.2025  14.2660  14.3070  14.4626  16.4957  16.7296  17.2456  17.3567
    17.4934  17.6988  17.7080  17.7542  17.8901

     occupation numbers 
     1.0000   1.0000   1.0000   1.0000   1.0000   1.0000   1.0000   1.0000
     1.0000   1.0000   1.0000   1.0000   1.0000   1.0000   1.0000   1.0000
     1.0000   1.0000   1.0000   1.0000   1.0000   1.0000   1.0000   1.0000
     1.0000   1.0000   1.0000   1.0000   1.0000   1.0000   1.0000   1.0000
     1.0000   1.0000   1.0000   1.0000   1.0000   1.0000   1.0000   1.0000
     1.0000   1.0000   1.0000   1.0000   1.0000   1.0000   1.0000   1.0000
     1.0000   1.0000   1.0000   1.0000   1.0000   1.0000   1.0000   1.0000
     1.0000   1.0000   1.0000   1.0000   1.0000   1.0000   1.0000   1.0000
     1.0000   1.0000   1.0000   1.0000   1.0000   1.0000   1.0000   1.0000
     1.0000   1.0000   1.0000   1.0000   1.0000   1.0000   1.0000   1.0000
     1.0000   1.0000   0.9401   0.8493   0.0108   0.0005   0.0000   0.0000
     0.0000   0.0000   0.0000   0.0000   0.0000   0.0000   0.0000   0.0000
     0.0000   0.0000   0.0000   0.0000   0.0000

          k = 0.8000 0.6000 0.4243 ( 10093 PWs)   bands (ev):

   -49.0081 -49.0076 -49.0074 -49.0069 -23.3070 -23.3039 -23.2891 -23.2879
   -23.2835 -23.2820 -23.2614 -23.2588 -23.2542 -23.2529 -23.2350 -23.2339
   -21.9861 -21.9819 -21.9782 -21.9752  -6.6770  -6.5648  -6.5531  -6.3509
    -5.9652  -5.9035  -5.8409  -5.8247  -5.7935  -5.7157  -5.6529  -5.6390
    -4.1176  -4.1013  -4.0287  -4.0144  -3.9818  -3.9137  -3.7821  -3.7542
    -3.6722  -3.6543  -3.6508  -3.6291   5.4949   5.4974   6.0428   6.0772
     6.1215   6.1244   6.3031   6.3358   6.5135   6.6515   6.7681   6.8547
     6.9460   6.9943   7.0329   7.1784   7.2310   7.3124   7.4262   7.4568
     7.6502   7.8342   8.2526   8.3509   8.8602   8.9409   8.9794   9.0576
     9.2079   9.2301   9.2726   9.3030   9.4450   9.4486   9.6837   9.7692
    12.8630  13.3046  13.4606  13.4815  13.6090  13.6717  13.8691  14.0217
    14.2025  14.2660  14.3070  14.4626  16.4957  16.7296  17.2456  17.3567
    17.4934  17.6988  17.7080  17.7542  17.8901

     occupation numbers 
     1.0000   1.0000   1.0000   1.0000   1.0000   1.0000   1.0000   1.0000
     1.0000   1.0000   1.0000   1.0000   1.0000   1.0000   1.0000   1.0000
     1.0000   1.0000   1.0000   1.0000   1.0000   1.0000   1.0000   1.0000
     1.0000   1.0000   1.0000   1.0000   1.0000   1.0000   1.0000   1.0000
     1.0000   1.0000   1.0000   1.0000   1.0000   1.0000   1.0000   1.0000
     1.0000   1.0000   1.0000   1.0000   1.0000   1.0000   1.0000   1.0000
     1.0000   1.0000   1.0000   1.0000   1.0000   1.0000   1.0000   1.0000
     1.0000   1.0000   1.0000   1.0000   1.0000   1.0000   1.0000   1.0000
     1.0000   1.0000   1.0000   1.0000   1.0000   1.0000   1.0000   1.0000
     1.0000   1.0000   1.0000   1.0000   1.0000   1.0000   1.0000   1.0000
     1.0000   1.0000   0.9401   0.8493   0.0108   0.0005   0.0000   0.0000
     0.0000   0.0000   0.0000   0.0000   0.0000   0.0000   0.0000   0.0000
     0.0000   0.0000   0.0000   0.0000   0.0000

          k = 0.8000 0.6000 0.5657 ( 10093 PWs)   bands (ev):

   -49.0083 -49.0078 -49.0073 -49.0065 -23.3103 -23.3051 -23.3030 -23.3013
   -23.2898 -23.2828 -23.2551 -23.2524 -23.2409 -23.2394 -23.2358 -23.2329
   -21.9894 -21.9806 -21.9786 -21.9728  -6.7949  -6.7124  -6.5122  -6.1802
    -6.0211  -5.9035  -5.8468  -5.8442  -5.7421  -5.6592  -5.6293  -5.6157
    -4.1149  -4.0591  -4.0355  -4.0329  -3.9945  -3.8680  -3.8075  -3.7301
    -3.6999  -3.6584  -3.6582  -3.5973   5.4478   5.4919   5.5414   5.6411
     5.8896   5.9826   6.1375   6.2466   6.4448   6.7416   6.8265   7.0216
     7.1290   7.1435   7.1904   7.3022   7.3514   7.4603   7.4833   7.7005
     7.7703   8.2993   8.4651   8.6328   8.7680   8.7867   8.9747   8.9871
     9.0322   9.1072   9.1779   9.3265   9.3576   9.4132   9.7729   9.9574
    12.3108  12.9278  13.4556  13.4755  13.5614  13.9614  14.0607  14.2383
    14.2768  14.3503  14.4134  14.7208  16.0631  16.5191  16.8214  17.0073
    17.2307  17.4345  17.5844  17.6362  17.9251

     occupation numbers 
     1.0000   1.0000   1.0000   1.0000   1.0000   1.0000   1.0000   1.0000
     1.0000   1.0000   1.0000   1.0000   1.0000   1.0000   1.0000   1.0000
     1.0000   1.0000   1.0000   1.0000   1.0000   1.0000   1.0000   1.0000
     1.0000   1.0000   1.0000   1.0000   1.0000   1.0000   1.0000   1.0000
     1.0000   1.0000   1.0000   1.0000   1.0000   1.0000   1.0000   1.0000
     1.0000   1.0000   1.0000   1.0000   1.0000   1.0000   1.0000   1.0000
     1.0000   1.0000   1.0000   1.0000   1.0000   1.0000   1.0000   1.0000
     1.0000   1.0000   1.0000   1.0000   1.0000   1.0000   1.0000   1.0000
     1.0000   1.0000   1.0000   1.0000   1.0000   1.0000   1.0000   1.0000
     1.0000   1.0000   1.0000   1.0000   1.0000   1.0000   1.0000   1.0000
     1.0000   1.0000   0.9525   0.8831   0.1009   0.0000   0.0000   0.0000
     0.0000   0.0000   0.0000   0.0000   0.0000   0.0000   0.0000   0.0000
     0.0000   0.0000   0.0000   0.0000   0.0000

          k = 0.8000 0.8000 0.0000 ( 10069 PWs)   bands (ev):

   -49.0091 -49.0077 -49.0073 -49.0055 -23.3191 -23.3138 -23.3076 -23.3074
   -23.2792 -23.2751 -23.2647 -23.2583 -23.2346 -23.2305 -23.2290 -23.2254
   -22.0021 -21.9801 -21.9778 -21.9658  -6.7880  -6.7739  -6.5701  -6.1259
    -5.9862  -5.9321  -5.8704  -5.7244  -5.7087  -5.5558  -5.5499  -5.5480
    -4.1415  -4.1140  -4.0616  -3.9928  -3.9895  -3.9435  -3.8999  -3.8312
    -3.8070  -3.7392  -3.6238  -3.5817   5.2009   5.2417   5.3038   5.4142
     5.8568   5.9839   6.1897   6.3661   6.3910   6.4885   6.5049   6.9645
     7.0244   7.3335   7.3867   7.5285   7.5418   7.7008   7.7087   8.2363
     8.4697   8.5049   8.5148   8.7178   8.7433   8.7615   8.8021   8.8652
     8.9999   9.3404   9.5432   9.5567   9.7180   9.7330   9.7828  10.0324
    11.7471  12.6698  12.6887  12.7673  13.5136  14.0606  14.2106  14.3172
    14.6147  14.6696  14.8513  14.9396  15.7362  16.1946  16.2615  16.4118
    16.4464  16.5755  17.1301  17.3413  17.8794

     occupation numbers 
     1.0000   1.0000   1.0000   1.0000   1.0000   1.0000   1.0000   1.0000
     1.0000   1.0000   1.0000   1.0000   1.0000   1.0000   1.0000   1.0000
     1.0000   1.0000   1.0000   1.0000   1.0000   1.0000   1.0000   1.0000
     1.0000   1.0000   1.0000   1.0000   1.0000   1.0000   1.0000   1.0000
     1.0000   1.0000   1.0000   1.0000   1.0000   1.0000   1.0000   1.0000
     1.0000   1.0000   1.0000   1.0000   1.0000   1.0000   1.0000   1.0000
     1.0000   1.0000   1.0000   1.0000   1.0000   1.0000   1.0000   1.0000
     1.0000   1.0000   1.0000   1.0000   1.0000   1.0000   1.0000   1.0000
     1.0000   1.0000   1.0000   1.0000   1.0000   1.0000   1.0000   1.0000
     1.0000   1.0000   1.0000   1.0000   1.0000   1.0000   1.0000   1.0000
     1.0000   1.0000   1.0000   1.0000   0.5392   0.0000   0.0000   0.0000
     0.0000   0.0000   0.0000   0.0000   0.0000   0.0000   0.0000   0.0000
     0.0000   0.0000   0.0000   0.0000   0.0000

          k = 0.8000 0.8000 0.1414 ( 10067 PWs)   bands (ev):

   -49.0089 -49.0077 -49.0073 -49.0057 -23.3144 -23.3100 -23.3081 -23.3003
   -23.2789 -23.2756 -23.2641 -23.2589 -23.2427 -23.2378 -23.2287 -23.2258
   -21.9999 -21.9822 -21.9767 -21.9670  -6.7593  -6.7565  -6.5045  -6.1118
    -5.9968  -5.9503  -5.8368  -5.8256  -5.7056  -5.6059  -5.5583  -5.5482
    -4.1899  -4.0680  -4.0350  -4.0116  -3.9974  -3.9109  -3.8795  -3.8422
    -3.8012  -3.7426  -3.6462  -3.6165   5.2429   5.2439   5.5402   5.6136
     5.9013   6.0257   6.1961   6.3308   6.4661   6.4819   6.6133   6.9414
     7.0471   7.1115   7.2417   7.4737   7.4971   7.6602   7.6864   8.1286
     8.2465   8.3899   8.3912   8.7243   8.7782   8.8197   8.9462   9.0386
     9.0651   9.2897   9.3757   9.4129   9.6871   9.7340   9.7822   9.9718
    12.0392  12.6846  12.7557  12.7941  13.6058  13.9127  14.1228  14.2614
    14.5871  14.6778  14.8282  14.8596  15.8156  16.1793  16.4330  16.6149
    16.7008  16.7779  17.1802  17.5409  17.8867

     occupation numbers 
     1.0000   1.0000   1.0000   1.0000   1.0000   1.0000   1.0000   1.0000
     1.0000   1.0000   1.0000   1.0000   1.0000   1.0000   1.0000   1.0000
     1.0000   1.0000   1.0000   1.0000   1.0000   1.0000   1.0000   1.0000
     1.0000   1.0000   1.0000   1.0000   1.0000   1.0000   1.0000   1.0000
     1.0000   1.0000   1.0000   1.0000   1.0000   1.0000   1.0000   1.0000
     1.0000   1.0000   1.0000   1.0000   1.0000   1.0000   1.0000   1.0000
     1.0000   1.0000   1.0000   1.0000   1.0000   1.0000   1.0000   1.0000
     1.0000   1.0000   1.0000   1.0000   1.0000   1.0000   1.0000   1.0000
     1.0000   1.0000   1.0000   1.0000   1.0000   1.0000   1.0000   1.0000
     1.0000   1.0000   1.0000   1.0000   1.0000   1.0000   1.0000   1.0000
     1.0000   1.0000   1.0000   1.0000   0.0126   0.0000   0.0000   0.0000
     0.0000   0.0000   0.0000   0.0000   0.0000   0.0000   0.0000   0.0000
     0.0000   0.0000   0.0000   0.0000   0.0000

          k = 0.8000 0.8000 0.2828 ( 10073 PWs)   bands (ev):

   -49.0085 -49.0081 -49.0068 -49.0064 -23.3121 -23.3099 -23.2900 -23.2814
   -23.2778 -23.2767 -23.2654 -23.2614 -23.2606 -23.2561 -23.2278 -23.2267
   -21.9943 -21.9876 -21.9737 -21.9700  -6.7217  -6.7163  -6.3320  -6.1381
    -5.9770  -5.9757  -5.9649  -5.8484  -5.7103  -5.6217  -5.6128  -5.5856
    -4.1884  -4.1237  -4.0344  -4.0111  -3.9282  -3.8730  -3.8421  -3.8068
    -3.7762  -3.7692  -3.7069  -3.7020   5.2495   5.2543   6.0030   6.0767
     6.1385   6.1516   6.2101   6.3854   6.4873   6.7019   6.7582   6.8065
     6.8799   6.9017   6.9908   7.1698   7.4281   7.5663   7.6285   7.6322
     7.8882   8.1674   8.4043   8.6001   8.8477   8.9215   9.0527   9.1934
     9.2224   9.2858   9.3502   9.4523   9.5259   9.6607   9.7857   9.8277
    12.6116  12.7220  12.7968  13.1377  13.4218  13.6514  13.8817  14.2680
    14.4172  14.6567  14.7171  14.7797  16.0054  16.1244  16.8806  17.0431
    17.2520  17.3752  17.4065  17.5409  17.6791

     occupation numbers 
     1.0000   1.0000   1.0000   1.0000   1.0000   1.0000   1.0000   1.0000
     1.0000   1.0000   1.0000   1.0000   1.0000   1.0000   1.0000   1.0000
     1.0000   1.0000   1.0000   1.0000   1.0000   1.0000   1.0000   1.0000
     1.0000   1.0000   1.0000   1.0000   1.0000   1.0000   1.0000   1.0000
     1.0000   1.0000   1.0000   1.0000   1.0000   1.0000   1.0000   1.0000
     1.0000   1.0000   1.0000   1.0000   1.0000   1.0000   1.0000   1.0000
     1.0000   1.0000   1.0000   1.0000   1.0000   1.0000   1.0000   1.0000
     1.0000   1.0000   1.0000   1.0000   1.0000   1.0000   1.0000   1.0000
     1.0000   1.0000   1.0000   1.0000   1.0000   1.0000   1.0000   1.0000
     1.0000   1.0000   1.0000   1.0000   1.0000   1.0000   1.0000   1.0000
     1.0000   1.0000   1.0000   1.0000   0.9906   0.0014   0.0000   0.0000
     0.0000   0.0000   0.0000   0.0000   0.0000   0.0000   0.0000   0.0000
     0.0000   0.0000   0.0000   0.0000   0.0000

          k = 0.8000 0.8000 0.4243 ( 10073 PWs)   bands (ev):

   -49.0085 -49.0081 -49.0068 -49.0064 -23.3121 -23.3099 -23.2900 -23.2814
   -23.2778 -23.2767 -23.2654 -23.2614 -23.2606 -23.2561 -23.2278 -23.2267
   -21.9943 -21.9876 -21.9737 -21.9700  -6.7217  -6.7163  -6.3320  -6.1381
    -5.9770  -5.9757  -5.9649  -5.8484  -5.7103  -5.6217  -5.6128  -5.5856
    -4.1884  -4.1237  -4.0344  -4.0111  -3.9282  -3.8730  -3.8421  -3.8068
    -3.7762  -3.7692  -3.7069  -3.7020   5.2495   5.2543   6.0030   6.0767
     6.1385   6.1516   6.2101   6.3854   6.4873   6.7019   6.7582   6.8065
     6.8799   6.9017   6.9908   7.1698   7.4281   7.5663   7.6285   7.6322
     7.8882   8.1674   8.4043   8.6001   8.8477   8.9215   9.0527   9.1934
     9.2225   9.2858   9.3502   9.4523   9.5259   9.6607   9.7857   9.8277
    12.6116  12.7220  12.7968  13.1377  13.4218  13.6514  13.8817  14.2680
    14.4172  14.6567  14.7171  14.7797  16.0054  16.1244  16.8806  17.0431
    17.2520  17.3752  17.4065  17.5409  17.6791

     occupation numbers 
     1.0000   1.0000   1.0000   1.0000   1.0000   1.0000   1.0000   1.0000
     1.0000   1.0000   1.0000   1.0000   1.0000   1.0000   1.0000   1.0000
     1.0000   1.0000   1.0000   1.0000   1.0000   1.0000   1.0000   1.0000
     1.0000   1.0000   1.0000   1.0000   1.0000   1.0000   1.0000   1.0000
     1.0000   1.0000   1.0000   1.0000   1.0000   1.0000   1.0000   1.0000
     1.0000   1.0000   1.0000   1.0000   1.0000   1.0000   1.0000   1.0000
     1.0000   1.0000   1.0000   1.0000   1.0000   1.0000   1.0000   1.0000
     1.0000   1.0000   1.0000   1.0000   1.0000   1.0000   1.0000   1.0000
     1.0000   1.0000   1.0000   1.0000   1.0000   1.0000   1.0000   1.0000
     1.0000   1.0000   1.0000   1.0000   1.0000   1.0000   1.0000   1.0000
     1.0000   1.0000   1.0000   1.0000   0.9906   0.0014   0.0000   0.0000
     0.0000   0.0000   0.0000   0.0000   0.0000   0.0000   0.0000   0.0000
     0.0000   0.0000   0.0000   0.0000   0.0000

          k = 0.8000 0.8000 0.5657 ( 10067 PWs)   bands (ev):

   -49.0089 -49.0077 -49.0073 -49.0057 -23.3144 -23.3100 -23.3081 -23.3003
   -23.2789 -23.2756 -23.2641 -23.2589 -23.2427 -23.2378 -23.2287 -23.2258
   -21.9999 -21.9822 -21.9767 -21.9670  -6.7593  -6.7565  -6.5045  -6.1118
    -5.9968  -5.9503  -5.8368  -5.8256  -5.7056  -5.6059  -5.5583  -5.5482
    -4.1899  -4.0680  -4.0350  -4.0116  -3.9974  -3.9109  -3.8795  -3.8422
    -3.8012  -3.7426  -3.6462  -3.6165   5.2429   5.2439   5.5402   5.6136
     5.9013   6.0257   6.1961   6.3308   6.4661   6.4819   6.6133   6.9414
     7.0471   7.1115   7.2417   7.4737   7.4971   7.6602   7.6864   8.1286
     8.2465   8.3899   8.3912   8.7243   8.7782   8.8197   8.9462   9.0386
     9.0651   9.2897   9.3757   9.4129   9.6871   9.7340   9.7822   9.9718
    12.0392  12.6846  12.7557  12.7941  13.6058  13.9127  14.1228  14.2614
    14.5871  14.6778  14.8282  14.8596  15.8156  16.1793  16.4330  16.6149
    16.7008  16.7779  17.1802  17.5409  17.8867

     occupation numbers 
     1.0000   1.0000   1.0000   1.0000   1.0000   1.0000   1.0000   1.0000
     1.0000   1.0000   1.0000   1.0000   1.0000   1.0000   1.0000   1.0000
     1.0000   1.0000   1.0000   1.0000   1.0000   1.0000   1.0000   1.0000
     1.0000   1.0000   1.0000   1.0000   1.0000   1.0000   1.0000   1.0000
     1.0000   1.0000   1.0000   1.0000   1.0000   1.0000   1.0000   1.0000
     1.0000   1.0000   1.0000   1.0000   1.0000   1.0000   1.0000   1.0000
     1.0000   1.0000   1.0000   1.0000   1.0000   1.0000   1.0000   1.0000
     1.0000   1.0000   1.0000   1.0000   1.0000   1.0000   1.0000   1.0000
     1.0000   1.0000   1.0000   1.0000   1.0000   1.0000   1.0000   1.0000
     1.0000   1.0000   1.0000   1.0000   1.0000   1.0000   1.0000   1.0000
     1.0000   1.0000   1.0000   1.0000   0.0126   0.0000   0.0000   0.0000
     0.0000   0.0000   0.0000   0.0000   0.0000   0.0000   0.0000   0.0000
     0.0000   0.0000   0.0000   0.0000   0.0000

     the Fermi energy is    13.5168 ev
     (compare with:    13.5168 eV, computed in scf)
     The nscf band energy is:      -51.99030678 Ry
     Calculation interrupted for call of DMFT code

     Writing all to output data dir ./out/smo.save/ :
     XML data file, pseudopotentials, collected wavefunctions

     init_run     :      1.43s CPU      1.87s WALL (       1 calls)
     electrons    :     33.69s CPU     41.91s WALL (       1 calls)

     Called by init_run:
     wfcinit      :      0.00s CPU      0.21s WALL (       1 calls)
     wfcinit:atom :      0.02s CPU      0.04s WALL (       1 calls)
     wfcinit:wfcr :      1.04s CPU      1.08s WALL (       1 calls)
     potinit      :      0.19s CPU      0.32s WALL (       1 calls)
     hinit0       :      1.11s CPU      1.13s WALL (       1 calls)

     Called by electrons:
     c_bands      :     33.62s CPU     34.09s WALL (       1 calls)
     v_of_rho     :      0.10s CPU      0.11s WALL (       1 calls)
     v_h          :      0.04s CPU      0.05s WALL (       1 calls)
     v_xc         :      0.06s CPU      0.06s WALL (       1 calls)
     newd         :      0.03s CPU      0.04s WALL (       1 calls)
     PAW_pot      :      0.02s CPU      0.03s WALL (       1 calls)

     Called by c_bands:
     init_us_2    :      0.05s CPU      0.07s WALL (       1 calls)
     cegterg      :     32.39s CPU     32.76s WALL (       6 calls)

     Called by sum_band:

     Called by *egterg:
     cdiaghg      :      4.60s CPU      4.63s WALL (     121 calls)
     cegterg:over :      4.78s CPU      4.80s WALL (     120 calls)
     cegterg:upda :      4.45s CPU      4.53s WALL (     120 calls)
     cegterg:last :      1.49s CPU      1.51s WALL (       7 calls)
     h_psi        :     14.92s CPU     15.09s WALL (     127 calls)
     s_psi        :      2.44s CPU      2.45s WALL (     127 calls)
     g_psi        :      0.05s CPU      0.05s WALL (     120 calls)

     Called by h_psi:
     h_psi:calbec :      2.37s CPU      2.38s WALL (     127 calls)
     vloc_psi     :      9.94s CPU     10.00s WALL (     127 calls)
                                        0.00s GPU  (     127 calls)
     add_vuspsi   :      2.53s CPU      2.56s WALL (     127 calls)

     General routines
     calbec       :      2.37s CPU      2.38s WALL (     127 calls)
     fft          :      0.07s CPU      0.07s WALL (       6 calls)
     ffts         :      0.00s CPU      0.00s WALL (       1 calls)
     fftw         :      9.05s CPU      9.10s WALL (    4570 calls)
     interpolate  :      0.02s CPU      0.03s WALL (       1 calls)
     davcio       :      0.00s CPU      4.27s WALL (       2 calls)

     Parallel routines

     PAW routines
     PAW_pot      :      0.02s CPU      0.03s WALL (       1 calls)

     PWSCF        :     35.68s CPU     45.25s WALL


   This run was terminated on:  20:39: 9  29Nov2025            

=------------------------------------------------------------------------------=
   JOB DONE.
=------------------------------------------------------------------------------=
