
             +---------------------------------------------------+
             |                                                   |
             |                   WANNIER90                       |
             |                                                   |
             +---------------------------------------------------+
             |                                                   |
             |        Welcome to the Maximally-Localized         |
             |        Generalized Wannier Functions code         |
             |            http://www.wannier.org                 |
             |                                                   |
             |                                                   |
             |  Wannier90 Developer Group:                       |
             |    Giovanni Pizzi    (Paul Scherrer Institute)    |
             |    Valerio Vitale    (University of Trieste)      |
             |    David Vanderbilt  (Rutgers University)         |
             |    Nicola Marzari    (EPFL)                       |
             |    Ivo Souza         (Universidad del Pais Vasco) |
             |    Arash A. Mostofi  (Imperial College London)    |
             |    Jonathan R. Yates (University of Oxford)       |
             |                                                   |
             |  For the full list of Wannier90 3.x authors,      |
             |  please check the code documentation and the      |
             |  README on the GitHub page of the code            |
             |                                                   |
             |                                                   |
             |  Please cite                                      |
             |                                                   |
             |  [ref] "Wannier90 as a community code:            |
             |        new features and applications",            |
             |        G. Pizzi et al., J. Phys. Cond. Matt. 32,  |
             |        165902 (2020).                             |
             |        http://doi.org/10.1088/1361-648X/ab51ff    |
             |                                                   |
             |  in any publications arising from the use of      |
             |  this code. For the method please cite            |
             |                                                   |
             |  [ref] "Maximally Localized Generalised Wannier   |
             |         Functions for Composite Energy Bands"     |
             |         N. Marzari and D. Vanderbilt              |
             |         Phys. Rev. B 56 12847 (1997)              |
             |                                                   |
             |  [ref] "Maximally Localized Wannier Functions     |
             |         for Entangled Energy Bands"               |
             |         I. Souza, N. Marzari and D. Vanderbilt    |
             |         Phys. Rev. B 65 035109 (2001)             |
             |                                                   |
             |                                                   |
             | Copyright (c) 1996-2020                           |
             |        The Wannier90 Developer Group and          |
             |        individual contributors                    |
             |                                                   |
             |      Release: 3.1.0        5th March    2020      |
             |                                                   |
             | This program is free software; you can            |
             | redistribute it and/or modify it under the terms  |
             | of the GNU General Public License as published by |
             | the Free Software Foundation; either version 2 of |
             | the License, or (at your option) any later version|
             |                                                   |
             | This program is distributed in the hope that it   |
             | will be useful, but WITHOUT ANY WARRANTY; without |
             | even the implied warranty of MERCHANTABILITY or   |
             | FITNESS FOR A PARTICULAR PURPOSE. See the GNU     |
             | General Public License for more details.          |
             |                                                   |
             | You should have received a copy of the GNU General|
             | Public License along with this program; if not,   |
             | write to the Free Software Foundation, Inc.,      |
             | 675 Mass Ave, Cambridge, MA 02139, USA.           |
             |                                                   |
             +---------------------------------------------------+
             |    Execution started on 29Nov2025 at 20:40:39     |
             +---------------------------------------------------+
 
 ******************************************************************************
 * -> Using CODATA 2006 constant values                                       *
 *    (http://physics.nist.gov/cuu/Constants/index.html)                      *
 * -> Using Bohr value from CODATA                                            *
 ******************************************************************************

 Running in parallel on 128 CPUs

                                    ------
                                    SYSTEM
                                    ------

                              Lattice Vectors (Ang)
                    a_1     5.613960   0.000000   0.000000
                    a_2     0.000000   5.613960   0.000000
                    a_3     0.000000   0.000000   7.939340

                   Unit Cell Volume:     250.22058  (Ang^3)

                        Reciprocal-Space Vectors (Ang^-1)
                    b_1     1.119207   0.000000   0.000000
                    b_2     0.000000   1.119207   0.000000
                    b_3     0.000000   0.000000   0.791399
  
 *----------------------------------------------------------------------------*
 |   Site       Fractional Coordinate          Cartesian Coordinate (Ang)     |
 +----------------------------------------------------------------------------+
 | sr   1   0.00000   0.50000   0.25000   |    0.00000   2.80698   1.98483    |
 | sr   2   0.00000   0.50000   0.75000   |    0.00000   2.80698   5.95450    |
 | sr   3   0.50000   0.00000   0.75000   |    2.80698   0.00000   5.95450    |
 | sr   4   0.50000   0.00000   0.25000   |    2.80698   0.00000   1.98483    |
 | mo   1   0.00000   0.00000   0.00000   |    0.00000   0.00000   0.00000    |
 | mo   2   0.00000   0.00000   0.50000   |    0.00000   0.00000   3.96967    |
 | mo   3   0.50000   0.50000   0.50000   |    2.80698   2.80698   3.96967    |
 | mo   4   0.50000   0.50000   0.00000   |    2.80698   2.80698   0.00000    |
 | o    1   0.25000   0.75000  -0.02227   |    1.40349   4.21047  -0.17677    |
 | o    2   0.25000   0.25000   0.02227   |    1.40349   1.40349   0.17677    |
 | o    3   0.75000   0.25000   0.47773   |    4.21047   1.40349   3.79290    |
 | o    4   0.75000   0.75000   0.52226   |    4.21047   4.21047   4.14644    |
 | o    5   0.75000   0.25000   0.02227   |    4.21047   1.40349   0.17677    |
 | o    6   0.75000   0.75000  -0.02227   |    4.21047   4.21047  -0.17677    |
 | o    7   0.25000   0.75000   0.52226   |    1.40349   4.21047   4.14644    |
 | o    8   0.25000   0.25000   0.47773   |    1.40349   1.40349   3.79290    |
 | o    9   0.00000  -0.04453   0.25000   |    0.00000  -0.24999   1.98483    |
 | o   10   0.00000   0.04453   0.75000   |    0.00000   0.24999   5.95450    |
 | o   11   0.50000   0.45547   0.75000   |    2.80698   2.55699   5.95450    |
 | o   12   0.50000   0.54453   0.25000   |    2.80698   3.05697   1.98483    |
 *----------------------------------------------------------------------------*
                                -----------
                                PROJECTIONS
                                -----------
  
 +----------------------------------------------------------------------------+
 |     Frac. Coord.   l mr  r        z-axis               x-axis          Z/a |
 +----------------------------------------------------------------------------+
 |  0.00  0.00  0.00  2  2  1  0.000  0.000  1.000  0.707  0.707  0.000   1.0 |
 |  0.00  0.00  0.00  2  3  1  0.000  0.000  1.000  0.707  0.707  0.000   1.0 |
 |  0.00  0.00  0.00  2  5  1  0.000  0.000  1.000  0.707  0.707  0.000   1.0 |
 |  0.00  0.00  0.50  2  2  1  0.000  0.000  1.000  0.707  0.707  0.000   1.0 |
 |  0.00  0.00  0.50  2  3  1  0.000  0.000  1.000  0.707  0.707  0.000   1.0 |
 |  0.00  0.00  0.50  2  5  1  0.000  0.000  1.000  0.707  0.707  0.000   1.0 |
 |  0.50  0.50  0.50  2  2  1  0.000  0.000  1.000  0.707  0.707  0.000   1.0 |
 |  0.50  0.50  0.50  2  3  1  0.000  0.000  1.000  0.707  0.707  0.000   1.0 |
 |  0.50  0.50  0.50  2  5  1  0.000  0.000  1.000  0.707  0.707  0.000   1.0 |
 |  0.50  0.50  0.00  2  2  1  0.000  0.000  1.000  0.707  0.707  0.000   1.0 |
 |  0.50  0.50  0.00  2  3  1  0.000  0.000  1.000  0.707  0.707  0.000   1.0 |
 |  0.50  0.50  0.00  2  5  1  0.000  0.000  1.000  0.707  0.707  0.000   1.0 |
 |  0.00  0.00  0.00  2  1  1  0.000  0.000  1.000  0.707  0.707  0.000   1.0 |
 |  0.00  0.00  0.00  2  4  1  0.000  0.000  1.000  0.707  0.707  0.000   1.0 |
 |  0.00  0.00  0.50  2  1  1  0.000  0.000  1.000  0.707  0.707  0.000   1.0 |
 |  0.00  0.00  0.50  2  4  1  0.000  0.000  1.000  0.707  0.707  0.000   1.0 |
 |  0.50  0.50  0.50  2  1  1  0.000  0.000  1.000  0.707  0.707  0.000   1.0 |
 |  0.50  0.50  0.50  2  4  1  0.000  0.000  1.000  0.707  0.707  0.000   1.0 |
 |  0.50  0.50  0.00  2  1  1  0.000  0.000  1.000  0.707  0.707  0.000   1.0 |
 |  0.50  0.50  0.00  2  4  1  0.000  0.000  1.000  0.707  0.707  0.000   1.0 |
 |  0.25  0.75 -0.02  1  1  1  0.000  0.000  1.000  1.000  0.000  0.000   1.0 |
 |  0.25  0.75 -0.02  1  2  1  0.000  0.000  1.000  1.000  0.000  0.000   1.0 |
 |  0.25  0.75 -0.02  1  3  1  0.000  0.000  1.000  1.000  0.000  0.000   1.0 |
 |  0.25  0.25  0.02  1  1  1  0.000  0.000  1.000  1.000  0.000  0.000   1.0 |
 |  0.25  0.25  0.02  1  2  1  0.000  0.000  1.000  1.000  0.000  0.000   1.0 |
 |  0.25  0.25  0.02  1  3  1  0.000  0.000  1.000  1.000  0.000  0.000   1.0 |
 |  0.75  0.25  0.48  1  1  1  0.000  0.000  1.000  1.000  0.000  0.000   1.0 |
 |  0.75  0.25  0.48  1  2  1  0.000  0.000  1.000  1.000  0.000  0.000   1.0 |
 |  0.75  0.25  0.48  1  3  1  0.000  0.000  1.000  1.000  0.000  0.000   1.0 |
 |  0.75  0.75  0.52  1  1  1  0.000  0.000  1.000  1.000  0.000  0.000   1.0 |
 |  0.75  0.75  0.52  1  2  1  0.000  0.000  1.000  1.000  0.000  0.000   1.0 |
 |  0.75  0.75  0.52  1  3  1  0.000  0.000  1.000  1.000  0.000  0.000   1.0 |
 |  0.75  0.25  0.02  1  1  1  0.000  0.000  1.000  1.000  0.000  0.000   1.0 |
 |  0.75  0.25  0.02  1  2  1  0.000  0.000  1.000  1.000  0.000  0.000   1.0 |
 |  0.75  0.25  0.02  1  3  1  0.000  0.000  1.000  1.000  0.000  0.000   1.0 |
 |  0.75  0.75 -0.02  1  1  1  0.000  0.000  1.000  1.000  0.000  0.000   1.0 |
 |  0.75  0.75 -0.02  1  2  1  0.000  0.000  1.000  1.000  0.000  0.000   1.0 |
 |  0.75  0.75 -0.02  1  3  1  0.000  0.000  1.000  1.000  0.000  0.000   1.0 |
 |  0.25  0.75  0.52  1  1  1  0.000  0.000  1.000  1.000  0.000  0.000   1.0 |
 |  0.25  0.75  0.52  1  2  1  0.000  0.000  1.000  1.000  0.000  0.000   1.0 |
 |  0.25  0.75  0.52  1  3  1  0.000  0.000  1.000  1.000  0.000  0.000   1.0 |
 |  0.25  0.25  0.48  1  1  1  0.000  0.000  1.000  1.000  0.000  0.000   1.0 |
 |  0.25  0.25  0.48  1  2  1  0.000  0.000  1.000  1.000  0.000  0.000   1.0 |
 |  0.25  0.25  0.48  1  3  1  0.000  0.000  1.000  1.000  0.000  0.000   1.0 |
 |  0.00 -0.04  0.25  1  1  1  0.000  0.000  1.000  1.000  0.000  0.000   1.0 |
 |  0.00 -0.04  0.25  1  2  1  0.000  0.000  1.000  1.000  0.000  0.000   1.0 |
 |  0.00 -0.04  0.25  1  3  1  0.000  0.000  1.000  1.000  0.000  0.000   1.0 |
 |  0.00  0.04  0.75  1  1  1  0.000  0.000  1.000  1.000  0.000  0.000   1.0 |
 |  0.00  0.04  0.75  1  2  1  0.000  0.000  1.000  1.000  0.000  0.000   1.0 |
 |  0.00  0.04  0.75  1  3  1  0.000  0.000  1.000  1.000  0.000  0.000   1.0 |
 |  0.50  0.46  0.75  1  1  1  0.000  0.000  1.000  1.000  0.000  0.000   1.0 |
 |  0.50  0.46  0.75  1  2  1  0.000  0.000  1.000  1.000  0.000  0.000   1.0 |
 |  0.50  0.46  0.75  1  3  1  0.000  0.000  1.000  1.000  0.000  0.000   1.0 |
 |  0.50  0.54  0.25  1  1  1  0.000  0.000  1.000  1.000  0.000  0.000   1.0 |
 |  0.50  0.54  0.25  1  2  1  0.000  0.000  1.000  1.000  0.000  0.000   1.0 |
 |  0.50  0.54  0.25  1  3  1  0.000  0.000  1.000  1.000  0.000  0.000   1.0 |
 +----------------------------------------------------------------------------+
  
                                ------------
                                K-POINT GRID
                                ------------
  
             Grid size =  5 x  5 x  5      Total points =  125
  
 *----------------------------------------------------------------------------*
 | k-point      Fractional Coordinate        Cartesian Coordinate (Ang^-1)    |
 +----------------------------------------------------------------------------+
 |     1    0.00000   0.00000   0.00000   |    0.00000   0.00000   0.00000    |
 |     2    0.00000   0.00000   0.20000   |    0.00000   0.00000   0.15828    |
 |     3    0.00000   0.00000   0.40000   |    0.00000   0.00000   0.31656    |
 |     4    0.00000   0.00000   0.60000   |    0.00000   0.00000   0.47484    |
 |     5    0.00000   0.00000   0.80000   |    0.00000   0.00000   0.63312    |
 |     6    0.00000   0.20000   0.00000   |    0.00000   0.22384   0.00000    |
 |     7    0.00000   0.20000   0.20000   |    0.00000   0.22384   0.15828    |
 |     8    0.00000   0.20000   0.40000   |    0.00000   0.22384   0.31656    |
 |     9    0.00000   0.20000   0.60000   |    0.00000   0.22384   0.47484    |
 |    10    0.00000   0.20000   0.80000   |    0.00000   0.22384   0.63312    |
 |    11    0.00000   0.40000   0.00000   |    0.00000   0.44768   0.00000    |
 |    12    0.00000   0.40000   0.20000   |    0.00000   0.44768   0.15828    |
 |    13    0.00000   0.40000   0.40000   |    0.00000   0.44768   0.31656    |
 |    14    0.00000   0.40000   0.60000   |    0.00000   0.44768   0.47484    |
 |    15    0.00000   0.40000   0.80000   |    0.00000   0.44768   0.63312    |
 |    16    0.00000   0.60000   0.00000   |    0.00000   0.67152   0.00000    |
 |    17    0.00000   0.60000   0.20000   |    0.00000   0.67152   0.15828    |
 |    18    0.00000   0.60000   0.40000   |    0.00000   0.67152   0.31656    |
 |    19    0.00000   0.60000   0.60000   |    0.00000   0.67152   0.47484    |
 |    20    0.00000   0.60000   0.80000   |    0.00000   0.67152   0.63312    |
 |    21    0.00000   0.80000   0.00000   |    0.00000   0.89537   0.00000    |
 |    22    0.00000   0.80000   0.20000   |    0.00000   0.89537   0.15828    |
 |    23    0.00000   0.80000   0.40000   |    0.00000   0.89537   0.31656    |
 |    24    0.00000   0.80000   0.60000   |    0.00000   0.89537   0.47484    |
 |    25    0.00000   0.80000   0.80000   |    0.00000   0.89537   0.63312    |
 |    26    0.20000   0.00000   0.00000   |    0.22384   0.00000   0.00000    |
 |    27    0.20000   0.00000   0.20000   |    0.22384   0.00000   0.15828    |
 |    28    0.20000   0.00000   0.40000   |    0.22384   0.00000   0.31656    |
 |    29    0.20000   0.00000   0.60000   |    0.22384   0.00000   0.47484    |
 |    30    0.20000   0.00000   0.80000   |    0.22384   0.00000   0.63312    |
 |    31    0.20000   0.20000   0.00000   |    0.22384   0.22384   0.00000    |
 |    32    0.20000   0.20000   0.20000   |    0.22384   0.22384   0.15828    |
 |    33    0.20000   0.20000   0.40000   |    0.22384   0.22384   0.31656    |
 |    34    0.20000   0.20000   0.60000   |    0.22384   0.22384   0.47484    |
 |    35    0.20000   0.20000   0.80000   |    0.22384   0.22384   0.63312    |
 |    36    0.20000   0.40000   0.00000   |    0.22384   0.44768   0.00000    |
 |    37    0.20000   0.40000   0.20000   |    0.22384   0.44768   0.15828    |
 |    38    0.20000   0.40000   0.40000   |    0.22384   0.44768   0.31656    |
 |    39    0.20000   0.40000   0.60000   |    0.22384   0.44768   0.47484    |
 |    40    0.20000   0.40000   0.80000   |    0.22384   0.44768   0.63312    |
 |    41    0.20000   0.60000   0.00000   |    0.22384   0.67152   0.00000    |
 |    42    0.20000   0.60000   0.20000   |    0.22384   0.67152   0.15828    |
 |    43    0.20000   0.60000   0.40000   |    0.22384   0.67152   0.31656    |
 |    44    0.20000   0.60000   0.60000   |    0.22384   0.67152   0.47484    |
 |    45    0.20000   0.60000   0.80000   |    0.22384   0.67152   0.63312    |
 |    46    0.20000   0.80000   0.00000   |    0.22384   0.89537   0.00000    |
 |    47    0.20000   0.80000   0.20000   |    0.22384   0.89537   0.15828    |
 |    48    0.20000   0.80000   0.40000   |    0.22384   0.89537   0.31656    |
 |    49    0.20000   0.80000   0.60000   |    0.22384   0.89537   0.47484    |
 |    50    0.20000   0.80000   0.80000   |    0.22384   0.89537   0.63312    |
 |    51    0.40000   0.00000   0.00000   |    0.44768   0.00000   0.00000    |
 |    52    0.40000   0.00000   0.20000   |    0.44768   0.00000   0.15828    |
 |    53    0.40000   0.00000   0.40000   |    0.44768   0.00000   0.31656    |
 |    54    0.40000   0.00000   0.60000   |    0.44768   0.00000   0.47484    |
 |    55    0.40000   0.00000   0.80000   |    0.44768   0.00000   0.63312    |
 |    56    0.40000   0.20000   0.00000   |    0.44768   0.22384   0.00000    |
 |    57    0.40000   0.20000   0.20000   |    0.44768   0.22384   0.15828    |
 |    58    0.40000   0.20000   0.40000   |    0.44768   0.22384   0.31656    |
 |    59    0.40000   0.20000   0.60000   |    0.44768   0.22384   0.47484    |
 |    60    0.40000   0.20000   0.80000   |    0.44768   0.22384   0.63312    |
 |    61    0.40000   0.40000   0.00000   |    0.44768   0.44768   0.00000    |
 |    62    0.40000   0.40000   0.20000   |    0.44768   0.44768   0.15828    |
 |    63    0.40000   0.40000   0.40000   |    0.44768   0.44768   0.31656    |
 |    64    0.40000   0.40000   0.60000   |    0.44768   0.44768   0.47484    |
 |    65    0.40000   0.40000   0.80000   |    0.44768   0.44768   0.63312    |
 |    66    0.40000   0.60000   0.00000   |    0.44768   0.67152   0.00000    |
 |    67    0.40000   0.60000   0.20000   |    0.44768   0.67152   0.15828    |
 |    68    0.40000   0.60000   0.40000   |    0.44768   0.67152   0.31656    |
 |    69    0.40000   0.60000   0.60000   |    0.44768   0.67152   0.47484    |
 |    70    0.40000   0.60000   0.80000   |    0.44768   0.67152   0.63312    |
 |    71    0.40000   0.80000   0.00000   |    0.44768   0.89537   0.00000    |
 |    72    0.40000   0.80000   0.20000   |    0.44768   0.89537   0.15828    |
 |    73    0.40000   0.80000   0.40000   |    0.44768   0.89537   0.31656    |
 |    74    0.40000   0.80000   0.60000   |    0.44768   0.89537   0.47484    |
 |    75    0.40000   0.80000   0.80000   |    0.44768   0.89537   0.63312    |
 |    76    0.60000   0.00000   0.00000   |    0.67152   0.00000   0.00000    |
 |    77    0.60000   0.00000   0.20000   |    0.67152   0.00000   0.15828    |
 |    78    0.60000   0.00000   0.40000   |    0.67152   0.00000   0.31656    |
 |    79    0.60000   0.00000   0.60000   |    0.67152   0.00000   0.47484    |
 |    80    0.60000   0.00000   0.80000   |    0.67152   0.00000   0.63312    |
 |    81    0.60000   0.20000   0.00000   |    0.67152   0.22384   0.00000    |
 |    82    0.60000   0.20000   0.20000   |    0.67152   0.22384   0.15828    |
 |    83    0.60000   0.20000   0.40000   |    0.67152   0.22384   0.31656    |
 |    84    0.60000   0.20000   0.60000   |    0.67152   0.22384   0.47484    |
 |    85    0.60000   0.20000   0.80000   |    0.67152   0.22384   0.63312    |
 |    86    0.60000   0.40000   0.00000   |    0.67152   0.44768   0.00000    |
 |    87    0.60000   0.40000   0.20000   |    0.67152   0.44768   0.15828    |
 |    88    0.60000   0.40000   0.40000   |    0.67152   0.44768   0.31656    |
 |    89    0.60000   0.40000   0.60000   |    0.67152   0.44768   0.47484    |
 |    90    0.60000   0.40000   0.80000   |    0.67152   0.44768   0.63312    |
 |    91    0.60000   0.60000   0.00000   |    0.67152   0.67152   0.00000    |
 |    92    0.60000   0.60000   0.20000   |    0.67152   0.67152   0.15828    |
 |    93    0.60000   0.60000   0.40000   |    0.67152   0.67152   0.31656    |
 |    94    0.60000   0.60000   0.60000   |    0.67152   0.67152   0.47484    |
 |    95    0.60000   0.60000   0.80000   |    0.67152   0.67152   0.63312    |
 |    96    0.60000   0.80000   0.00000   |    0.67152   0.89537   0.00000    |
 |    97    0.60000   0.80000   0.20000   |    0.67152   0.89537   0.15828    |
 |    98    0.60000   0.80000   0.40000   |    0.67152   0.89537   0.31656    |
 |    99    0.60000   0.80000   0.60000   |    0.67152   0.89537   0.47484    |
 |   100    0.60000   0.80000   0.80000   |    0.67152   0.89537   0.63312    |
 |   101    0.80000   0.00000   0.00000   |    0.89537   0.00000   0.00000    |
 |   102    0.80000   0.00000   0.20000   |    0.89537   0.00000   0.15828    |
 |   103    0.80000   0.00000   0.40000   |    0.89537   0.00000   0.31656    |
 |   104    0.80000   0.00000   0.60000   |    0.89537   0.00000   0.47484    |
 |   105    0.80000   0.00000   0.80000   |    0.89537   0.00000   0.63312    |
 |   106    0.80000   0.20000   0.00000   |    0.89537   0.22384   0.00000    |
 |   107    0.80000   0.20000   0.20000   |    0.89537   0.22384   0.15828    |
 |   108    0.80000   0.20000   0.40000   |    0.89537   0.22384   0.31656    |
 |   109    0.80000   0.20000   0.60000   |    0.89537   0.22384   0.47484    |
 |   110    0.80000   0.20000   0.80000   |    0.89537   0.22384   0.63312    |
 |   111    0.80000   0.40000   0.00000   |    0.89537   0.44768   0.00000    |
 |   112    0.80000   0.40000   0.20000   |    0.89537   0.44768   0.15828    |
 |   113    0.80000   0.40000   0.40000   |    0.89537   0.44768   0.31656    |
 |   114    0.80000   0.40000   0.60000   |    0.89537   0.44768   0.47484    |
 |   115    0.80000   0.40000   0.80000   |    0.89537   0.44768   0.63312    |
 |   116    0.80000   0.60000   0.00000   |    0.89537   0.67152   0.00000    |
 |   117    0.80000   0.60000   0.20000   |    0.89537   0.67152   0.15828    |
 |   118    0.80000   0.60000   0.40000   |    0.89537   0.67152   0.31656    |
 |   119    0.80000   0.60000   0.60000   |    0.89537   0.67152   0.47484    |
 |   120    0.80000   0.60000   0.80000   |    0.89537   0.67152   0.63312    |
 |   121    0.80000   0.80000   0.00000   |    0.89537   0.89537   0.00000    |
 |   122    0.80000   0.80000   0.20000   |    0.89537   0.89537   0.15828    |
 |   123    0.80000   0.80000   0.40000   |    0.89537   0.89537   0.31656    |
 |   124    0.80000   0.80000   0.60000   |    0.89537   0.89537   0.47484    |
 |   125    0.80000   0.80000   0.80000   |    0.89537   0.89537   0.63312    |
 *----------------------------------------------------------------------------*
  
  
 *---------------------------------- MAIN ------------------------------------*
 |  Number of Wannier Functions               :                56             |
 |  Number of Objective Wannier Functions     :                56             |
 |  Number of input Bloch states              :                56             |
 |  Output verbosity (1=low, 5=high)          :                 2             |
 |  Timing Level (1=low, 5=high)              :                 1             |
 |  Optimisation (0=memory, 3=speed)          :                 3             |
 |  Length Unit                               :               Ang             |
 |  Post-processing setup (write *.nnkp)      :                 F             |
 |  Using Gamma-only branch of algorithms     :                 F             |
 *----------------------------------------------------------------------------*
 *------------------------------- WANNIERISE ---------------------------------*
 |  Total number of iterations                :             10000             |
 |  Number of CG steps before reset           :                 5             |
 |  Trial step length for line search         :             2.000             |
 |  Convergence tolerence                     :         0.100E-11             |
 |  Convergence window                        :                 5             |
 |  Iterations between writing output         :               200             |
 |  Iterations between backing up to disk     :               100             |
 |  Write r^2_nm to file                      :                 F             |
 |  Write xyz WF centres to file              :                 F             |
 |  Write on-site energies <0n|H|0n> to file  :                 F             |
 |  Use guiding centre to control phases      :                 F             |
 |  Use phases for initial projections        :                 F             |
 *----------------------------------------------------------------------------*
 *-------------------------------- PLOTTING ----------------------------------*
 |  Plotting interpolated bandstructure       :                 T             |
 |   Number of K-path sections                :                 7             |
 |   Divisions along first K-path section     :               100             |
 |   Output format                            :           gnuplot             |
 |   Output mode                              :               s-k             |
 *----------------------------------------------------------------------------*
 |   K-space path sections:                                                   |
 |    From: G       0.000  0.000  0.000     To: X       0.000  0.500  0.000   |
 |    From: X       0.000  0.500  0.000     To: M       0.500  0.500  0.000   |
 |    From: M       0.500  0.500  0.000     To: G       0.000  0.000  0.000   |
 |    From: G       0.000  0.000  0.000     To: Z       0.000  0.000  0.500   |
 |    From: Z       0.000  0.000  0.500     To: R       0.000  0.500  0.500   |
 |    From: R       0.000  0.500  0.500     To: A       0.500  0.500  0.500   |
 |    From: A       0.500  0.500  0.500     To: Z       0.000  0.000  0.500   |
 *----------------------------------------------------------------------------*
 |  Plotting Hamiltonian in WF basis          :                 T             |
 *----------------------------------------------------------------------------*

 *---------------------------------- K-MESH ----------------------------------*
 +----------------------------------------------------------------------------+
 |                    Distance to Nearest-Neighbour Shells                    |
 |                    ------------------------------------                    |
 |          Shell             Distance (Ang^-1)          Multiplicity         |
 |          -----             -----------------          ------------         |
 |             1                   0.158280                      2            |
 |             2                   0.223841                      4            |
 |             3                   0.274149                      8            |
 |             4                   0.316560                      6            |
 |             5                   0.353924                      8            |
 |             6                   0.387705                      8            |
 |             7                   0.447683                     12            |
 |             8                   0.474839                     10            |
 |             9                   0.500525                      8            |
 |            10                   0.524955                     24            |
 |            11                   0.548297                      8            |
 |            12                   0.570686                      8            |
 |            13                   0.592229                     16            |
 |            14                   0.633119                      6            |
 |            15                   0.652604                     16            |
 |            16                   0.671524                     12            |
 |            17                   0.689926                     24            |
 |            18                   0.707849                     24            |
 |            19                   0.725329                     16            |
 |            20                   0.742398                      8            |
 |            21                   0.775409                     24            |
 |            22                   0.791399                     10            |
 |            23                   0.807072                     24            |
 |            24                   0.822446                     32            |
 |            25                   0.852363                     24            |
 |            26                   0.866934                     16            |
 |            27                   0.895366                     12            |
 |            28                   0.909248                     16            |
 |            29                   0.922922                     16            |
 |            30                   0.936396                     48            |
 |            31                   0.949679                     30            |
 |            32                   0.962779                      8            |
 |            33                   0.975702                     24            |
 |            34                   1.001049                     24            |
 |            35                   1.013485                     32            |
 |            36                   1.025770                     16            |
 +----------------------------------------------------------------------------+
 | The b-vectors are chosen automatically                                     |
 | Shell:  1 w_b   19.9580947      (Ang^2)                                    |
 | Shell:  1 w_b   19.9580947      (Ang^2)                                    |
 | Shell:  2 w_b    9.9790432      (Ang^2)                                    |
 | The following shells are used:   1,  2                 |
 +----------------------------------------------------------------------------+
 |                        Shell   # Nearest-Neighbours                        |
 |                        -----   --------------------                        |
 |                          1               2                                 |
 |                          2               4                                 |
 +----------------------------------------------------------------------------+
 | Completeness relation is fully satisfied [Eq. (B1), PRB 56, 12847 (1997)]  |
 +----------------------------------------------------------------------------+
 |                  b_k Vectors (Ang^-1) and Weights (Ang^2)                  |
 |                  ----------------------------------------                  |
 |            No.         b_k(x)      b_k(y)      b_k(z)        w_b           |
 |            ---        --------------------------------     --------        |
 |             1         0.000000    0.000000    0.158280    19.958095        |
 |             2         0.000000    0.000000   -0.158280    19.958095        |
 |             3         0.000000    0.223841    0.000000     9.979043        |
 |             4         0.223841    0.000000    0.000000     9.979043        |
 |             5         0.000000   -0.223841    0.000000     9.979043        |
 |             6        -0.223841    0.000000    0.000000     9.979043        |
 +----------------------------------------------------------------------------+
 |                           b_k Directions (Ang^-1)                          |
 |                           -----------------------                          |
 |            No.           x           y           z                         |
 |            ---        --------------------------------                     |
 |             1         0.000000    0.000000    0.158280                     |
 |             2         0.000000    0.223841    0.000000                     |
 |             3         0.223841    0.000000    0.000000                     |
 +----------------------------------------------------------------------------+
  
 Starting a new Wannier90 calculation ...


 Reading overlaps from smo.mmn    :  Created on 29Nov2025 at 20:40: 9

 Reading projections from smo.amn :  Created on 29Nov2025 at 20:39:50

 *------------------------------- WANNIERISE ---------------------------------*
 +--------------------------------------------------------------------+<-- CONV
 | Iter  Delta Spread     RMS Gradient      Spread (Ang^2)      Time  |<-- CONV
 +--------------------------------------------------------------------+<-- CONV

 ------------------------------------------------------------------------------
 Initial State
  WF centre and spread    1  ( -0.001897,  0.001020, -0.002952 )     3.20129564
  WF centre and spread    2  ( -0.001261,  0.000070, -0.008741 )     3.16907828
  WF centre and spread    3  ( -0.000008, -0.000062, -0.000053 )     1.42544885
  WF centre and spread    4  ( -0.001018, -0.000943,  3.965304 )     3.16470420
  WF centre and spread    5  (  0.000426,  0.000008,  3.964494 )     3.13615320
  WF centre and spread    6  (  0.000011,  0.000059,  3.969614 )     1.42185501
  WF centre and spread    7  (  2.805929,  2.809958,  3.964884 )     3.18644761
  WF centre and spread    8  (  2.807243,  2.809715,  3.965653 )     3.17660292
  WF centre and spread    9  (  2.806993,  2.807029,  3.969710 )     1.42232054
  WF centre and spread   10  (  2.805933,  2.808409, -0.004304 )     3.22155473
  WF centre and spread   11  (  2.804532,  2.809501, -0.007150 )     3.23466016
  WF centre and spread   12  (  2.806963,  2.806961, -0.000024 )     1.42553908
  WF centre and spread   13  (  0.000732, -0.012962, -0.119471 )    31.88121487
  WF centre and spread   14  ( -0.117854,  0.112234, -0.167951 )    36.63130794
  WF centre and spread   15  (  0.015462, -0.027229,  3.851097 )    31.33716084
  WF centre and spread   16  (  0.019954,  0.078020,  3.890377 )    35.61218480
  WF centre and spread   17  (  2.801444,  2.886315,  3.857852 )    31.46513695
  WF centre and spread   18  (  2.822852,  2.842333,  3.877590 )    36.06719914
  WF centre and spread   19  (  2.788439,  2.823781, -0.128462 )    32.94984880
  WF centre and spread   20  (  2.715422,  2.927884, -0.119010 )    36.04809990
  WF centre and spread   21  (  1.403491,  4.210475, -0.203759 )     1.16672247
  WF centre and spread   22  (  1.391060,  4.217745, -0.214349 )     6.55520218
  WF centre and spread   23  (  1.393470,  4.220230, -0.203675 )     6.57706305
  WF centre and spread   24  (  1.403476,  1.403520,  0.203965 )     1.16536964
  WF centre and spread   25  (  1.395494,  1.413842,  0.179347 )     6.74428270
  WF centre and spread   26  (  1.392675,  1.414044,  0.167440 )     6.71990057
  WF centre and spread   27  (  4.210522,  1.403542,  3.767815 )     1.16258852
  WF centre and spread   28  (  4.213336,  1.407968,  3.765553 )     6.53300696
  WF centre and spread   29  (  4.212409,  1.406262,  3.775255 )     6.50181695
  WF centre and spread   30  (  4.210499,  4.210469,  4.171079 )     1.16508474
  WF centre and spread   31  (  4.209841,  4.213726,  4.154199 )     6.55034526
  WF centre and spread   32  (  4.207612,  4.215082,  4.146984 )     6.57203760
  WF centre and spread   33  (  4.210458,  1.403464,  0.203817 )     1.16592809
  WF centre and spread   34  (  4.199424,  1.412696,  0.164286 )     6.75443011
  WF centre and spread   35  (  4.202583,  1.413594,  0.154130 )     6.67539337
  WF centre and spread   36  (  4.210471,  4.210492, -0.203749 )     1.16530797
  WF centre and spread   37  (  4.199548,  4.217373, -0.202395 )     6.63236147
  WF centre and spread   38  (  4.198103,  4.217616, -0.192607 )     6.63096978
  WF centre and spread   39  (  1.403495,  4.210490,  4.171197 )     1.16452649
  WF centre and spread   40  (  1.406714,  4.216052,  4.156070 )     6.47279977
  WF centre and spread   41  (  1.408182,  4.218009,  4.148431 )     6.50117545
  WF centre and spread   42  (  1.403480,  1.403498,  3.767865 )     1.16458934
  WF centre and spread   43  (  1.402458,  1.406190,  3.764555 )     6.55610660
  WF centre and spread   44  (  1.400374,  1.407311,  3.772878 )     6.54634078
  WF centre and spread   45  ( -0.000728, -0.242718,  1.927134 )    10.71572275
  WF centre and spread   46  ( -0.000021, -0.252520,  1.984811 )     1.14769833
  WF centre and spread   47  (  0.000066, -0.305502,  1.984750 )     1.19876473
  WF centre and spread   48  ( -0.001390,  0.232762,  5.937410 )    10.59969401
  WF centre and spread   49  ( -0.000061,  0.252228,  5.954474 )     1.14856939
  WF centre and spread   50  ( -0.000064,  0.305473,  5.954571 )     1.19594103
  WF centre and spread   51  (  2.800996,  2.584273,  5.937580 )    10.92202000
  WF centre and spread   52  (  2.807012,  2.554785,  5.954455 )     1.14675119
  WF centre and spread   53  (  2.806871,  2.501632,  5.954508 )     1.19381673
  WF centre and spread   54  (  2.801791,  3.059584,  1.930388 )    10.96388639
  WF centre and spread   55  (  2.807056,  3.059553,  1.984820 )     1.14681456
  WF centre and spread   56  (  2.807002,  3.112321,  1.984804 )     1.20211555
  Sum of centres and spreads (111.998004,112.817663,133.622493 )   470.60295799

      0     0.471E+03     0.0000000000      470.6029579921       0.00  <-- CONV
        O_D=      7.3861622 O_OD=    305.9031943 O_TOT=    470.6029580 <-- SPRD
 ------------------------------------------------------------------------------
 Cycle:      1
  WF centre and spread    1  ( -0.000275, -0.001118, -0.004109 )     2.56464018
  WF centre and spread    2  ( -0.001774, -0.001480, -0.009563 )     2.54004640
  WF centre and spread    3  ( -0.000101, -0.000255, -0.000348 )     1.42792313
  WF centre and spread    4  (  0.001297, -0.003312,  3.963298 )     2.52385279
  WF centre and spread    5  (  0.001149, -0.002467,  3.963951 )     2.50883794
  WF centre and spread    6  (  0.000114, -0.000066,  3.969385 )     1.41828046
  WF centre and spread    7  (  2.808097,  2.811721,  3.965807 )     2.54219016
  WF centre and spread    8  (  2.809061,  2.810907,  3.964423 )     2.53205152
  WF centre and spread    9  (  2.807000,  2.806771,  3.969670 )     1.41269486
  WF centre and spread   10  (  2.806071,  2.810081, -0.004500 )     2.55165102
  WF centre and spread   11  (  2.805200,  2.810800, -0.008701 )     2.58844886
  WF centre and spread   12  (  2.806915,  2.806836,  0.000001 )     1.42408649
  WF centre and spread   13  (  0.039104, -0.100545, -0.275891 )    33.11427466
  WF centre and spread   14  ( -0.182005,  0.192537, -0.127694 )    39.45572940
  WF centre and spread   15  (  0.052525, -0.118361,  3.685590 )    31.68590579
  WF centre and spread   16  (  0.155080,  0.222325,  4.025649 )    38.98582259
  WF centre and spread   17  (  2.870544,  3.000576,  3.731527 )    33.94225850
  WF centre and spread   18  (  2.909408,  2.783827,  3.977687 )    39.30634453
  WF centre and spread   19  (  2.786553,  2.918575, -0.289268 )    34.36385073
  WF centre and spread   20  (  2.501804,  3.054944,  0.023832 )    39.40594554
  WF centre and spread   21  (  1.403477,  4.210470, -0.208045 )     1.19917249
  WF centre and spread   22  (  1.388830,  4.218259, -0.210714 )     4.60344864
  WF centre and spread   23  (  1.392051,  4.218810, -0.200581 )     4.63233721
  WF centre and spread   24  (  1.403445,  1.403509,  0.207497 )     1.19364884
  WF centre and spread   25  (  1.396154,  1.413269,  0.190842 )     4.65687460
  WF centre and spread   26  (  1.390159,  1.415639,  0.177640 )     4.65620934
  WF centre and spread   27  (  4.210553,  1.403467,  3.764468 )     1.19602569
  WF centre and spread   28  (  4.218132,  1.406317,  3.766344 )     4.50743355
  WF centre and spread   29  (  4.216965,  1.405767,  3.780682 )     4.44834577
  WF centre and spread   30  (  4.210581,  4.210579,  4.172755 )     1.20358805
  WF centre and spread   31  (  4.222939,  4.218294,  4.155764 )     4.58808472
  WF centre and spread   32  (  4.218208,  4.221131,  4.147313 )     4.55805708
  WF centre and spread   33  (  4.210508,  1.403309,  0.207334 )     1.19830230
  WF centre and spread   34  (  4.198348,  1.412233,  0.172887 )     4.65188257
  WF centre and spread   35  (  4.203268,  1.415712,  0.163960 )     4.61561978
  WF centre and spread   36  (  4.210388,  4.210545, -0.208142 )     1.19646205
  WF centre and spread   37  (  4.201241,  4.218154, -0.196370 )     4.60351126
  WF centre and spread   38  (  4.199276,  4.221182, -0.183444 )     4.61673653
  WF centre and spread   39  (  1.403451,  4.210464,  4.173675 )     1.19861231
  WF centre and spread   40  (  1.412804,  4.215013,  4.159291 )     4.46868782
  WF centre and spread   41  (  1.414641,  4.217244,  4.150483 )     4.45936190
  WF centre and spread   42  (  1.403487,  1.403415,  3.763509 )     1.20017162
  WF centre and spread   43  (  1.409967,  1.404734,  3.772380 )     4.50699350
  WF centre and spread   44  (  1.407386,  1.406772,  3.781450 )     4.42545829
  WF centre and spread   45  (  0.007755, -0.262675,  1.895405 )     8.07809071
  WF centre and spread   46  ( -0.000297, -0.254168,  1.985357 )     1.15016886
  WF centre and spread   47  (  0.000126, -0.307856,  1.985018 )     1.20895842
  WF centre and spread   48  (  0.002757,  0.215029,  5.919584 )     8.23267295
  WF centre and spread   49  ( -0.000182,  0.254025,  5.954144 )     1.15312050
  WF centre and spread   50  (  0.000037,  0.307456,  5.954693 )     1.20172443
  WF centre and spread   51  (  2.809352,  2.588759,  5.934400 )     8.39861441
  WF centre and spread   52  (  2.807285,  2.553420,  5.953865 )     1.15589366
  WF centre and spread   53  (  2.807030,  2.500058,  5.954366 )     1.20416655
  WF centre and spread   54  (  2.812394,  3.075928,  1.905602 )     8.23426017
  WF centre and spread   55  (  2.807170,  3.061393,  1.985250 )     1.14829820
  WF centre and spread   56  (  2.807204,  3.114509,  1.984763 )     1.20712495
  Sum of centres and spreads (112.182656,113.132464,133.434169 )   441.25295528

      1    -0.294E+02    11.1820406496      441.2529552782       0.10  <-- CONV
        O_D=     26.3560633 O_OD=    257.5832904 O_TOT=    441.2529553 <-- SPRD
 Delta: O_D=  0.1896990E+02 O_OD= -0.4831990E+02 O_TOT= -0.2935000E+02 <-- DLTA
 ------------------------------------------------------------------------------
 Cycle:    200
  WF centre and spread    1  (  0.000382, -0.000145, -0.000154 )     1.36887745
  WF centre and spread    2  ( -0.000598,  0.000766, -0.000940 )     1.37212272
  WF centre and spread    3  ( -0.000405, -0.001430, -0.000955 )     1.33465977
  WF centre and spread    4  ( -0.000226, -0.000232,  3.970047 )     1.36125619
  WF centre and spread    5  ( -0.000225, -0.000467,  3.969509 )     1.36166322
  WF centre and spread    6  (  0.001290, -0.001283,  3.970089 )     1.33027637
  WF centre and spread    7  (  2.806839,  2.807428,  3.969237 )     1.36764920
  WF centre and spread    8  (  2.806455,  2.807741,  3.969768 )     1.36634480
  WF centre and spread    9  (  2.807662,  2.807362,  3.969752 )     1.33187640
  WF centre and spread   10  (  2.806975,  2.806416, -0.001502 )     1.36233674
  WF centre and spread   11  (  2.806977,  2.807093, -0.000679 )     1.36251052
  WF centre and spread   12  (  2.806802,  2.807187, -0.000512 )     1.33185455
  WF centre and spread   13  (  0.179868, -0.628487, -0.882191 )    23.94965634
  WF centre and spread   14  ( -0.178104,  0.316719,  0.053975 )    13.18465739
  WF centre and spread   15  (  0.055000, -1.202475,  2.968002 )    24.22180376
  WF centre and spread   16  (  0.505639,  0.065738,  3.605051 )    26.41605009
  WF centre and spread   17  (  2.816389,  2.958915,  3.580807 )    21.68940039
  WF centre and spread   18  (  3.147658,  2.692793,  3.895904 )    16.08736076
  WF centre and spread   19  (  2.843948,  4.706139, -1.852948 )    24.53438590
  WF centre and spread   20  (  1.509815,  2.367221,  1.398302 )    34.37919181
  WF centre and spread   21  (  1.403250,  4.210732, -0.204614 )     1.07228909
  WF centre and spread   22  (  1.426221,  4.192256, -0.177009 )     1.31384465
  WF centre and spread   23  (  1.425901,  4.183334, -0.175919 )     1.28860377
  WF centre and spread   24  (  1.403221,  1.403408,  0.202585 )     1.07071437
  WF centre and spread   25  (  1.423870,  1.419509,  0.175474 )     1.30022709
  WF centre and spread   26  (  1.426921,  1.425168,  0.175111 )     1.30135491
  WF centre and spread   27  (  4.210609,  1.403522,  3.771296 )     1.06275552
  WF centre and spread   28  (  4.229694,  1.383215,  3.792467 )     1.30606477
  WF centre and spread   29  (  4.226430,  1.385571,  3.793626 )     1.31755268
  WF centre and spread   30  (  4.210790,  4.210582,  4.171991 )     1.05979210
  WF centre and spread   31  (  4.230453,  4.226353,  4.145542 )     1.29410122
  WF centre and spread   32  (  4.226029,  4.222138,  4.145576 )     1.29239782
  WF centre and spread   33  (  4.210368,  1.403636,  0.203785 )     1.08014030
  WF centre and spread   34  (  4.179778,  1.434820,  0.176507 )     1.29737244
  WF centre and spread   35  (  4.182266,  1.435326,  0.176969 )     1.30118058
  WF centre and spread   36  (  4.210206,  4.210224, -0.206596 )     1.06824884
  WF centre and spread   37  (  4.194337,  4.193354, -0.177312 )     1.29502909
  WF centre and spread   38  (  4.195046,  4.193997, -0.175655 )     1.27758554
  WF centre and spread   39  (  1.403424,  4.210522,  4.178901 )     1.05247488
  WF centre and spread   40  (  1.394981,  4.218503,  4.145910 )     1.29342936
  WF centre and spread   41  (  1.397384,  4.218909,  4.146227 )     1.30586836
  WF centre and spread   42  (  1.403109,  1.403472,  3.767728 )     1.07537284
  WF centre and spread   43  (  1.392334,  1.391112,  3.791086 )     1.32165770
  WF centre and spread   44  (  1.393132,  1.389715,  3.791438 )     1.31585643
  WF centre and spread   45  (  0.001316, -0.223324,  1.985492 )     1.48610756
  WF centre and spread   46  ( -0.004934, -0.254269,  1.985111 )     1.04976773
  WF centre and spread   47  ( -0.001380, -0.304434,  1.985152 )     1.07541813
  WF centre and spread   48  ( -0.000530,  0.219321,  5.935946 )     1.51149925
  WF centre and spread   49  ( -0.004292,  0.254195,  5.954118 )     1.05462335
  WF centre and spread   50  ( -0.000214,  0.306402,  5.954521 )     1.07356818
  WF centre and spread   51  (  2.807764,  2.585007,  6.002388 )     1.59509059
  WF centre and spread   52  (  2.805158,  2.552166,  5.954724 )     1.05023202
  WF centre and spread   53  (  2.806700,  2.499314,  5.954435 )     1.08170253
  WF centre and spread   54  (  2.807357,  3.029318,  1.914794 )     1.56590986
  WF centre and spread   55  (  2.802782,  3.060967,  1.984870 )     1.05476647
  WF centre and spread   56  (  2.805184,  3.110985,  1.984676 )     1.07212287
  Sum of centres and spreads (111.946805,112.322023,131.811899 )   244.74865726

    200    -0.788E-01     4.3243720146      244.7486572624      18.50  <-- CONV
        O_D=      2.9586686 O_OD=     84.4763871 O_TOT=    244.7486573 <-- SPRD
 Delta: O_D= -0.6568167E-01 O_OD= -0.1316164E-01 O_TOT= -0.7884331E-01 <-- DLTA
 ------------------------------------------------------------------------------
 Cycle:    400
  WF centre and spread    1  (  0.000351, -0.000166, -0.000247 )     1.36744779
  WF centre and spread    2  ( -0.000620,  0.000749, -0.000953 )     1.37026470
  WF centre and spread    3  ( -0.000414, -0.001441, -0.000950 )     1.33439348
  WF centre and spread    4  ( -0.000102, -0.000148,  3.969828 )     1.36104899
  WF centre and spread    5  ( -0.000207, -0.000391,  3.969351 )     1.36146985
  WF centre and spread    6  (  0.001184, -0.001332,  3.970151 )     1.33003758
  WF centre and spread    7  (  2.806899,  2.807361,  3.969126 )     1.36677697
  WF centre and spread    8  (  2.806511,  2.807629,  3.969703 )     1.36480174
  WF centre and spread    9  (  2.807602,  2.807148,  3.969695 )     1.33276771
  WF centre and spread   10  (  2.806982,  2.806429, -0.001530 )     1.36197125
  WF centre and spread   11  (  2.807050,  2.807064, -0.000567 )     1.36204717
  WF centre and spread   12  (  2.806787,  2.806916, -0.000381 )     1.33155138
  WF centre and spread   13  (  0.100474, -0.597495, -0.806926 )    22.88544543
  WF centre and spread   14  ( -0.111916,  0.267356,  0.032169 )    12.61139478
  WF centre and spread   15  (  0.043450, -1.373496,  2.871371 )    24.45067290
  WF centre and spread   16  (  0.538705,  0.065087,  3.567438 )    27.33193863
  WF centre and spread   17  (  2.807202,  2.905639,  3.634687 )    20.60321120
  WF centre and spread   18  (  3.095513,  2.753050,  3.922423 )    15.02620517
  WF centre and spread   19  (  2.831869,  4.778944, -1.909547 )    23.78537679
  WF centre and spread   20  (  1.473909,  2.336213,  1.478352 )    35.49333195
  WF centre and spread   21  (  1.403242,  4.210708, -0.204599 )     1.07159415
  WF centre and spread   22  (  1.428680,  4.190797, -0.177274 )     1.31613686
  WF centre and spread   23  (  1.428115,  4.181359, -0.176204 )     1.29234400
  WF centre and spread   24  (  1.403222,  1.403464,  0.202536 )     1.06869088
  WF centre and spread   25  (  1.429309,  1.423363,  0.175117 )     1.30637759
  WF centre and spread   26  (  1.431518,  1.428894,  0.175004 )     1.30380151
  WF centre and spread   27  (  4.210603,  1.403558,  3.771153 )     1.06050183
  WF centre and spread   28  (  4.232497,  1.380204,  3.792638 )     1.30637464
  WF centre and spread   29  (  4.229580,  1.382435,  3.793722 )     1.31507142
  WF centre and spread   30  (  4.210837,  4.210664,  4.171688 )     1.05972394
  WF centre and spread   31  (  4.233944,  4.228838,  4.145916 )     1.29396348
  WF centre and spread   32  (  4.228644,  4.225665,  4.145812 )     1.29280371
  WF centre and spread   33  (  4.210397,  1.403684,  0.203649 )     1.07896204
  WF centre and spread   34  (  4.177547,  1.437234,  0.176383 )     1.30878729
  WF centre and spread   35  (  4.178877,  1.438727,  0.176745 )     1.30841794
  WF centre and spread   36  (  4.210237,  4.210266, -0.206236 )     1.06568539
  WF centre and spread   37  (  4.191746,  4.190187, -0.177732 )     1.29553176
  WF centre and spread   38  (  4.193184,  4.191029, -0.176236 )     1.27797992
  WF centre and spread   39  (  1.403351,  4.210571,  4.178423 )     1.05120369
  WF centre and spread   40  (  1.391050,  4.222565,  4.146263 )     1.28819312
  WF centre and spread   41  (  1.393360,  4.223171,  4.146526 )     1.30446765
  WF centre and spread   42  (  1.403078,  1.403488,  3.767831 )     1.07402254
  WF centre and spread   43  (  1.388792,  1.387103,  3.791181 )     1.31691282
  WF centre and spread   44  (  1.390013,  1.386545,  3.791401 )     1.31143496
  WF centre and spread   45  (  0.000803, -0.223840,  1.996014 )     1.48110088
  WF centre and spread   46  ( -0.004969, -0.254284,  1.985154 )     1.04721325
  WF centre and spread   47  ( -0.001484, -0.304084,  1.985151 )     1.07125172
  WF centre and spread   48  ( -0.000683,  0.220168,  5.930892 )     1.49766761
  WF centre and spread   49  ( -0.003928,  0.253928,  5.954138 )     1.05384995
  WF centre and spread   50  ( -0.000263,  0.306053,  5.954502 )     1.07222977
  WF centre and spread   51  (  2.807855,  2.584259,  6.008291 )     1.60634365
  WF centre and spread   52  (  2.805344,  2.552021,  5.954801 )     1.04942840
  WF centre and spread   53  (  2.806559,  2.499148,  5.954413 )     1.08252929
  WF centre and spread   54  (  2.807087,  3.029513,  1.909509 )     1.57704355
  WF centre and spread   55  (  2.803142,  3.060624,  1.984904 )     1.05299376
  WF centre and spread   56  (  2.805099,  3.110461,  1.984651 )     1.06972288
  Sum of centres and spreads (111.847611,112.183604,131.839318 )   242.46251331

    400    -0.403E-02     3.2621616941      242.4625133063      36.78  <-- CONV
        O_D=      2.8817906 O_OD=     82.2671212 O_TOT=    242.4625133 <-- SPRD
 Delta: O_D= -0.2688831E-02 O_OD= -0.1343159E-02 O_TOT= -0.4031990E-02 <-- DLTA
 ------------------------------------------------------------------------------
 Cycle:    600
  WF centre and spread    1  (  0.000324, -0.000181, -0.000273 )     1.36695756
  WF centre and spread    2  ( -0.000625,  0.000743, -0.000925 )     1.36961711
  WF centre and spread    3  ( -0.000418, -0.001458, -0.000944 )     1.33414936
  WF centre and spread    4  ( -0.000046, -0.000117,  3.969753 )     1.36114437
  WF centre and spread    5  ( -0.000211, -0.000353,  3.969322 )     1.36159145
  WF centre and spread    6  (  0.001103, -0.001364,  3.970176 )     1.32968536
  WF centre and spread    7  (  2.806903,  2.807321,  3.969107 )     1.36650513
  WF centre and spread    8  (  2.806534,  2.807583,  3.969694 )     1.36439025
  WF centre and spread    9  (  2.807565,  2.807030,  3.969668 )     1.33296964
  WF centre and spread   10  (  2.806975,  2.806443, -0.001493 )     1.36185250
  WF centre and spread   11  (  2.807068,  2.807058, -0.000489 )     1.36201597
  WF centre and spread   12  (  2.806780,  2.806790, -0.000322 )     1.33115535
  WF centre and spread   13  (  0.065002, -0.569872, -0.764961 )    22.33716410
  WF centre and spread   14  ( -0.086845,  0.246160,  0.024605 )    12.39768123
  WF centre and spread   15  (  0.038486, -1.465724,  2.817716 )    24.57819612
  WF centre and spread   16  (  0.553874,  0.055650,  3.546740 )    27.73776490
  WF centre and spread   17  (  2.805040,  2.885424,  3.662894 )    20.09757282
  WF centre and spread   18  (  3.068987,  2.778855,  3.933557 )    14.57960643
  WF centre and spread   19  (  2.836250,  4.810839, -1.931641 )    23.41126377
  WF centre and spread   20  (  1.454037,  2.340696,  1.528580 )    36.00401816
  WF centre and spread   21  (  1.403249,  4.210688, -0.204650 )     1.07122165
  WF centre and spread   22  (  1.429737,  4.190119, -0.177400 )     1.31838041
  WF centre and spread   23  (  1.429078,  4.180455, -0.176331 )     1.29523685
  WF centre and spread   24  (  1.403235,  1.403495,  0.202447 )     1.06780871
  WF centre and spread   25  (  1.431856,  1.425215,  0.175025 )     1.31210246
  WF centre and spread   26  (  1.433617,  1.430679,  0.175008 )     1.30748827
  WF centre and spread   27  (  4.210596,  1.403574,  3.771088 )     1.05966117
  WF centre and spread   28  (  4.233802,  1.378825,  3.792695 )     1.30842530
  WF centre and spread   29  (  4.231027,  1.380895,  3.793753 )     1.31618835
  WF centre and spread   30  (  4.210852,  4.210700,  4.171640 )     1.05972943
  WF centre and spread   31  (  4.235701,  4.230163,  4.146099 )     1.29515984
  WF centre and spread   32  (  4.230056,  4.227512,  4.145928 )     1.29441061
  WF centre and spread   33  (  4.210412,  1.403703,  0.203611 )     1.07834312
  WF centre and spread   34  (  4.176500,  1.438220,  0.176354 )     1.31555519
  WF centre and spread   35  (  4.177281,  1.440284,  0.176665 )     1.31301040
  WF centre and spread   36  (  4.210249,  4.210285, -0.206188 )     1.06474317
  WF centre and spread   37  (  4.190281,  4.188660, -0.177935 )     1.29771268
  WF centre and spread   38  (  4.192138,  4.189398, -0.176511 )     1.27932725
  WF centre and spread   39  (  1.403325,  4.210590,  4.178259 )     1.05082991
  WF centre and spread   40  (  1.388880,  4.224705,  4.146449 )     1.28648111
  WF centre and spread   41  (  1.391193,  4.225390,  4.146695 )     1.30495910
  WF centre and spread   42  (  1.403065,  1.403502,  3.767907 )     1.07359678
  WF centre and spread   43  (  1.387011,  1.385091,  3.791241 )     1.31622026
  WF centre and spread   44  (  1.388493,  1.384849,  3.791378 )     1.31078696
  WF centre and spread   45  (  0.000582, -0.224112,  2.001251 )     1.48135705
  WF centre and spread   46  ( -0.004961, -0.254312,  1.985153 )     1.04613643
  WF centre and spread   47  ( -0.001554, -0.303989,  1.985139 )     1.06954689
  WF centre and spread   48  ( -0.000745,  0.220514,  5.927927 )     1.49499984
  WF centre and spread   49  ( -0.003699,  0.253835,  5.954123 )     1.05358218
  WF centre and spread   50  ( -0.000306,  0.305905,  5.954486 )     1.07154285
  WF centre and spread   51  (  2.807903,  2.583947,  6.011301 )     1.61291160
  WF centre and spread   52  (  2.805434,  2.551953,  5.954832 )     1.04909595
  WF centre and spread   53  (  2.806511,  2.499066,  5.954403 )     1.08297832
  WF centre and spread   54  (  2.806973,  3.029631,  1.906673 )     1.58450130
  WF centre and spread   55  (  2.803326,  3.060472,  1.984897 )     1.05261538
  WF centre and spread   56  (  2.805088,  3.110243,  1.984646 )     1.06873774
  Sum of centres and spreads (111.802973,112.131672,131.868820 )   241.45068611

    600    -0.402E-02     4.3320220510      241.4506861064      54.98  <-- CONV
        O_D=      2.8657589 O_OD=     81.2713257 O_TOT=    241.4506861 <-- SPRD
 Delta: O_D= -0.2840991E-02 O_OD= -0.1182972E-02 O_TOT= -0.4023964E-02 <-- DLTA
 ------------------------------------------------------------------------------
 Cycle:    800
  WF centre and spread    1  (  0.000305, -0.000179, -0.000296 )     1.36634023
  WF centre and spread    2  ( -0.000608,  0.000728, -0.000901 )     1.36868676
  WF centre and spread    3  ( -0.000395, -0.001476, -0.000946 )     1.33393342
  WF centre and spread    4  (  0.000008, -0.000092,  3.969696 )     1.36106396
  WF centre and spread    5  ( -0.000188, -0.000330,  3.969300 )     1.36135680
  WF centre and spread    6  (  0.001023, -0.001389,  3.970207 )     1.32932661
  WF centre and spread    7  (  2.806916,  2.807295,  3.969109 )     1.36597588
  WF centre and spread    8  (  2.806567,  2.807535,  3.969680 )     1.36373268
  WF centre and spread    9  (  2.807526,  2.806905,  3.969636 )     1.33331111
  WF centre and spread   10  (  2.806987,  2.806481, -0.001431 )     1.36152002
  WF centre and spread   11  (  2.807091,  2.807041, -0.000426 )     1.36153281
  WF centre and spread   12  (  2.806788,  2.806673, -0.000277 )     1.33077201
  WF centre and spread   13  (  0.035288, -0.531188, -0.719690 )    21.75595155
  WF centre and spread   14  ( -0.065372,  0.226158,  0.018410 )    12.21180308
  WF centre and spread   15  (  0.025346, -1.583612,  2.769064 )    24.69426194
  WF centre and spread   16  (  0.575624,  0.052232,  3.523021 )    28.11098961
  WF centre and spread   17  (  2.805509,  2.868032,  3.693421 )    19.62579563
  WF centre and spread   18  (  3.041053,  2.802531,  3.943905 )    14.13817421
  WF centre and spread   19  (  2.834163,  4.843415, -1.948508 )    23.05785360
  WF centre and spread   20  (  1.433101,  2.334385,  1.567689 )    36.46872041
  WF centre and spread   21  (  1.403267,  4.210664, -0.204736 )     1.07080577
  WF centre and spread   22  (  1.430793,  4.189394, -0.177537 )     1.32116958
  WF centre and spread   23  (  1.430020,  4.179529, -0.176455 )     1.29876394
  WF centre and spread   24  (  1.403250,  1.403529,  0.202274 )     1.06689475
  WF centre and spread   25  (  1.434370,  1.427074,  0.174992 )     1.31940636
  WF centre and spread   26  (  1.435657,  1.432504,  0.175040 )     1.31256823
  WF centre and spread   27  (  4.210601,  1.403581,  3.771037 )     1.05884287
  WF centre and spread   28  (  4.235169,  1.377435,  3.792716 )     1.31109750
  WF centre and spread   29  (  4.232531,  1.379246,  3.793750 )     1.31768862
  WF centre and spread   30  (  4.210871,  4.210748,  4.171684 )     1.05950012
  WF centre and spread   31  (  4.237507,  4.231639,  4.146269 )     1.29769537
  WF centre and spread   32  (  4.231595,  4.229553,  4.146047 )     1.29674573
  WF centre and spread   33  (  4.210438,  1.403706,  0.203571 )     1.07749353
  WF centre and spread   34  (  4.175416,  1.439122,  0.176325 )     1.32311143
  WF centre and spread   35  (  4.175679,  1.441822,  0.176608 )     1.31831088
  WF centre and spread   36  (  4.210270,  4.210315, -0.206247 )     1.06398380
  WF centre and spread   37  (  4.188640,  4.187102, -0.178152 )     1.30098086
  WF centre and spread   38  (  4.190927,  4.187596, -0.176793 )     1.28134730
  WF centre and spread   39  (  1.403303,  4.210607,  4.178134 )     1.05069155
  WF centre and spread   40  (  1.386414,  4.227037,  4.146665 )     1.28524791
  WF centre and spread   41  (  1.388797,  4.227866,  4.146875 )     1.30560923
  WF centre and spread   42  (  1.403050,  1.403519,  3.767995 )     1.07273226
  WF centre and spread   43  (  1.385141,  1.382980,  3.791301 )     1.31675068
  WF centre and spread   44  (  1.386805,  1.382980,  3.791370 )     1.31003020
  WF centre and spread   45  (  0.000384, -0.224409,  2.006701 )     1.48362977
  WF centre and spread   46  ( -0.004898, -0.254346,  1.985143 )     1.04492591
  WF centre and spread   47  ( -0.001653, -0.303919,  1.985124 )     1.06816501
  WF centre and spread   48  ( -0.000791,  0.220854,  5.924433 )     1.49496982
  WF centre and spread   49  ( -0.003442,  0.253768,  5.954099 )     1.05321537
  WF centre and spread   50  ( -0.000364,  0.305772,  5.954468 )     1.07073540
  WF centre and spread   51  (  2.807985,  2.583664,  6.014520 )     1.62074668
  WF centre and spread   52  (  2.805522,  2.551880,  5.954849 )     1.04872788
  WF centre and spread   53  (  2.806458,  2.498999,  5.954396 )     1.08341670
  WF centre and spread   54  (  2.806889,  3.029765,  1.903624 )     1.59395333
  WF centre and spread   55  (  2.803539,  3.060333,  1.984887 )     1.05195610
  WF centre and spread   56  (  2.805103,  3.110049,  1.984647 )     1.06759568
  Sum of centres and spreads (111.751973,112.063104,131.900284 )   240.42060844

    800    -0.124E-01     1.8702640534      240.4206084396      73.26  <-- CONV
        O_D=      2.8276048 O_OD=     80.2794021 O_TOT=    240.4206084 <-- SPRD
 Delta: O_D= -0.1741743E-03 O_OD= -0.1223089E-01 O_TOT= -0.1240507E-01 <-- DLTA
 ------------------------------------------------------------------------------
 Cycle:   1000
  WF centre and spread    1  (  0.000282, -0.000182, -0.000301 )     1.36611854
  WF centre and spread    2  ( -0.000604,  0.000718, -0.000870 )     1.36826758
  WF centre and spread    3  ( -0.000378, -0.001491, -0.000952 )     1.33392730
  WF centre and spread    4  (  0.000042, -0.000084,  3.969658 )     1.36126953
  WF centre and spread    5  ( -0.000183, -0.000310,  3.969302 )     1.36145341
  WF centre and spread    6  (  0.000958, -0.001405,  3.970224 )     1.32913227
  WF centre and spread    7  (  2.806914,  2.807268,  3.969117 )     1.36586722
  WF centre and spread    8  (  2.806584,  2.807504,  3.969675 )     1.36355560
  WF centre and spread    9  (  2.807498,  2.806818,  3.969611 )     1.33375272
  WF centre and spread   10  (  2.806987,  2.806504, -0.001365 )     1.36146616
  WF centre and spread   11  (  2.807098,  2.807036, -0.000386 )     1.36142509
  WF centre and spread   12  (  2.806798,  2.806589, -0.000247 )     1.33077251
  WF centre and spread   13  (  0.018627, -0.499047, -0.687812 )    21.35406759
  WF centre and spread   14  ( -0.052969,  0.213563,  0.015082 )    12.10974158
  WF centre and spread   15  (  0.020284, -1.669352,  2.727309 )    24.81670267
  WF centre and spread   16  (  0.583600,  0.048068,  3.501820 )    28.29962570
  WF centre and spread   17  (  2.806771,  2.858387,  3.717166 )    19.32097378
  WF centre and spread   18  (  3.022173,  2.816832,  3.950670 )    13.85373221
  WF centre and spread   19  (  2.824666,  4.862481, -1.959877 )    22.80769970
  WF centre and spread   20  (  1.425843,  2.347059,  1.587160 )    36.78593463
  WF centre and spread   21  (  1.403287,  4.210641, -0.204805 )     1.07045222
  WF centre and spread   22  (  1.431514,  4.188845, -0.177636 )     1.32342466
  WF centre and spread   23  (  1.430637,  4.178870, -0.176528 )     1.30183646
  WF centre and spread   24  (  1.403265,  1.403552,  0.202153 )     1.06630821
  WF centre and spread   25  (  1.435994,  1.428336,  0.175003 )     1.32551058
  WF centre and spread   26  (  1.436990,  1.433755,  0.175075 )     1.31715940
  WF centre and spread   27  (  4.210599,  1.403584,  3.771022 )     1.05839262
  WF centre and spread   28  (  4.236124,  1.376539,  3.792741 )     1.31370709
  WF centre and spread   29  (  4.233526,  1.378133,  3.793767 )     1.31959239
  WF centre and spread   30  (  4.210878,  4.210772,  4.171734 )     1.05923819
  WF centre and spread   31  (  4.238786,  4.232689,  4.146394 )     1.29998169
  WF centre and spread   32  (  4.232766,  4.231026,  4.146135 )     1.29897806
  WF centre and spread   33  (  4.210449,  1.403707,  0.203563 )     1.07674262
  WF centre and spread   34  (  4.174710,  1.439691,  0.176310 )     1.32886450
  WF centre and spread   35  (  4.174630,  1.442840,  0.176581 )     1.32240089
  WF centre and spread   36  (  4.210278,  4.210329, -0.206308 )     1.06351260
  WF centre and spread   37  (  4.187410,  4.185974, -0.178298 )     1.30374829
  WF centre and spread   38  (  4.190055,  4.186293, -0.176988 )     1.28373611
  WF centre and spread   39  (  1.403294,  4.210617,  4.178059 )     1.05071531
  WF centre and spread   40  (  1.384612,  4.228706,  4.146817 )     1.28525376
  WF centre and spread   41  (  1.387040,  4.229613,  4.147027 )     1.30687866
  WF centre and spread   42  (  1.403038,  1.403534,  3.768020 )     1.07208123
  WF centre and spread   43  (  1.383807,  1.381532,  3.791357 )     1.31775952
  WF centre and spread   44  (  1.385636,  1.381617,  3.791354 )     1.31071466
  WF centre and spread   45  (  0.000261, -0.224618,  2.010719 )     1.48672601
  WF centre and spread   46  ( -0.004838, -0.254368,  1.985129 )     1.04418812
  WF centre and spread   47  ( -0.001712, -0.303898,  1.985121 )     1.06761400
  WF centre and spread   48  ( -0.000809,  0.221093,  5.921673 )     1.49508807
  WF centre and spread   49  ( -0.003255,  0.253734,  5.954096 )     1.05344324
  WF centre and spread   50  ( -0.000402,  0.305685,  5.954448 )     1.07016800
  WF centre and spread   51  (  2.808048,  2.583493,  6.016797 )     1.62583163
  WF centre and spread   52  (  2.805594,  2.551836,  5.954853 )     1.04847830
  WF centre and spread   53  (  2.806427,  2.498963,  5.954394 )     1.08381658
  WF centre and spread   54  (  2.806845,  3.029870,  1.901577 )     1.60127296
  WF centre and spread   55  (  2.803716,  3.060249,  1.984880 )     1.05162467
  WF centre and spread   56  (  2.805136,  3.109948,  1.984646 )     1.06687334
  Sum of centres and spreads (111.715330,112.030141,131.905864 )   239.75760046

   1000    -0.505E-02     1.6691201651      239.7576004644      91.26  <-- CONV
        O_D=      2.7950108 O_OD=     79.6489881 O_TOT=    239.7576005 <-- SPRD
 Delta: O_D= -0.1109265E-02 O_OD= -0.3940376E-02 O_TOT= -0.5049641E-02 <-- DLTA
 ------------------------------------------------------------------------------
 Cycle:   1200
  WF centre and spread    1  (  0.000252, -0.000181, -0.000319 )     1.36566007
  WF centre and spread    2  ( -0.000585,  0.000690, -0.000816 )     1.36748236
  WF centre and spread    3  ( -0.000336, -0.001501, -0.000942 )     1.33386072
  WF centre and spread    4  (  0.000092, -0.000069,  3.969604 )     1.36133535
  WF centre and spread    5  ( -0.000168, -0.000289,  3.969330 )     1.36144812
  WF centre and spread    6  (  0.000854, -0.001423,  3.970245 )     1.32877271
  WF centre and spread    7  (  2.806909,  2.807231,  3.969133 )     1.36544774
  WF centre and spread    8  (  2.806608,  2.807470,  3.969667 )     1.36326453
  WF centre and spread    9  (  2.807443,  2.806696,  3.969577 )     1.33401268
  WF centre and spread   10  (  2.806995,  2.806546, -0.001267 )     1.36125128
  WF centre and spread   11  (  2.807112,  2.807030, -0.000321 )     1.36115022
  WF centre and spread   12  (  2.806811,  2.806494, -0.000209 )     1.33040394
  WF centre and spread   13  (  0.000674, -0.447187, -0.638839 )    20.77832237
  WF centre and spread   14  ( -0.038691,  0.196811,  0.011606 )    11.98383633
  WF centre and spread   15  (  0.007485, -1.810798,  2.661132 )    24.92914174
  WF centre and spread   16  (  0.583709,  0.043022,  3.470163 )    28.47156671
  WF centre and spread   17  (  2.810101,  2.846132,  3.752287 )    18.95192998
  WF centre and spread   18  (  2.995982,  2.832737,  3.958666 )    13.47173197
  WF centre and spread   19  (  2.817076,  4.889390, -1.972627 )    22.51415050
  WF centre and spread   20  (  1.389159,  2.379321,  1.620753 )    37.22339023
  WF centre and spread   21  (  1.403321,  4.210614, -0.204952 )     1.06980618
  WF centre and spread   22  (  1.432553,  4.187998, -0.177769 )     1.32710340
  WF centre and spread   23  (  1.431490,  4.177890, -0.176637 )     1.30607087
  WF centre and spread   24  (  1.403286,  1.403582,  0.201898 )     1.06554482
  WF centre and spread   25  (  1.438279,  1.430011,  0.175073 )     1.33393043
  WF centre and spread   26  (  1.438800,  1.435481,  0.175149 )     1.32430539
  WF centre and spread   27  (  4.210598,  1.403590,  3.771060 )     1.05780322
  WF centre and spread   28  (  4.237425,  1.375282,  3.792764 )     1.31766692
  WF centre and spread   29  (  4.234908,  1.376436,  3.793733 )     1.32299895
  WF centre and spread   30  (  4.210892,  4.210809,  4.171919 )     1.05916309
  WF centre and spread   31  (  4.240542,  4.234272,  4.146575 )     1.30392783
  WF centre and spread   32  (  4.234506,  4.233170,  4.146273 )     1.30293055
  WF centre and spread   33  (  4.210468,  1.403709,  0.203504 )     1.07567694
  WF centre and spread   34  (  4.173660,  1.440414,  0.176318 )     1.33658582
  WF centre and spread   35  (  4.173178,  1.444196,  0.176573 )     1.32839882
  WF centre and spread   36  (  4.210284,  4.210349, -0.206534 )     1.06324445
  WF centre and spread   37  (  4.185571,  4.184396, -0.178494 )     1.30857145
  WF centre and spread   38  (  4.188664,  4.184356, -0.177225 )     1.28691003
  WF centre and spread   39  (  1.403285,  4.210638,  4.178042 )     1.05093991
  WF centre and spread   40  (  1.382087,  4.231066,  4.147040 )     1.28658788
  WF centre and spread   41  (  1.384556,  4.232103,  4.147226 )     1.30982314
  WF centre and spread   42  (  1.403026,  1.403544,  3.768114 )     1.07108080
  WF centre and spread   43  (  1.381978,  1.379485,  3.791428 )     1.32023712
  WF centre and spread   44  (  1.384032,  1.379595,  3.791300 )     1.31215697
  WF centre and spread   45  (  0.000099, -0.224907,  2.016496 )     1.49214419
  WF centre and spread   46  ( -0.004705, -0.254411,  1.985099 )     1.04318118
  WF centre and spread   47  ( -0.001794, -0.303893,  1.985111 )     1.06634064
  WF centre and spread   48  ( -0.000833,  0.221420,  5.917414 )     1.49950338
  WF centre and spread   49  ( -0.002971,  0.253710,  5.954079 )     1.05313313
  WF centre and spread   50  ( -0.000435,  0.305573,  5.954427 )     1.06936321
  WF centre and spread   51  (  2.808145,  2.583293,  6.020205 )     1.63468909
  WF centre and spread   52  (  2.805708,  2.551777,  5.954857 )     1.04826307
  WF centre and spread   53  (  2.806405,  2.498923,  5.954386 )     1.08438388
  WF centre and spread   54  (  2.806798,  3.030035,  1.898668 )     1.61345644
  WF centre and spread   55  (  2.803932,  3.060146,  1.984863 )     1.05128309
  WF centre and spread   56  (  2.805178,  3.109805,  1.984658 )     1.06598292
  Sum of centres and spreads (111.630398,111.982579,131.919462 )   238.82134876

   1200    -0.101E-01     4.6813338598      238.8213487632     109.53  <-- CONV
        O_D=      2.7333386 O_OD=     78.7744086 O_TOT=    238.8213488 <-- SPRD
 Delta: O_D= -0.9450361E-02 O_OD= -0.6902140E-03 O_TOT= -0.1014057E-01 <-- DLTA
 ------------------------------------------------------------------------------
 Cycle:   1400
  WF centre and spread    1  (  0.000243, -0.000175, -0.000328 )     1.36528209
  WF centre and spread    2  ( -0.000574,  0.000672, -0.000783 )     1.36711752
  WF centre and spread    3  ( -0.000305, -0.001505, -0.000942 )     1.33381311
  WF centre and spread    4  (  0.000114, -0.000058,  3.969578 )     1.36131249
  WF centre and spread    5  ( -0.000154, -0.000282,  3.969343 )     1.36144165
  WF centre and spread    6  (  0.000809, -0.001427,  3.970258 )     1.32863332
  WF centre and spread    7  (  2.806916,  2.807217,  3.969140 )     1.36513847
  WF centre and spread    8  (  2.806624,  2.807451,  3.969654 )     1.36309751
  WF centre and spread    9  (  2.807424,  2.806635,  3.969558 )     1.33428219
  WF centre and spread   10  (  2.807002,  2.806576, -0.001210 )     1.36099194
  WF centre and spread   11  (  2.807123,  2.807021, -0.000289 )     1.36103722
  WF centre and spread   12  (  2.806830,  2.806446, -0.000190 )     1.33037939
  WF centre and spread   13  ( -0.005533, -0.418060, -0.613197 )    20.49116129
  WF centre and spread   14  ( -0.032365,  0.188608,  0.010210 )    11.93185181
  WF centre and spread   15  (  0.001292, -1.891802,  2.637266 )    25.00576460
  WF centre and spread   16  (  0.598785,  0.038615,  3.459156 )    28.51355731
  WF centre and spread   17  (  2.812656,  2.841197,  3.770132 )    18.78661397
  WF centre and spread   18  (  2.983851,  2.839651,  3.962243 )    13.29079295
  WF centre and spread   19  (  2.813117,  4.900775, -1.977649 )    22.37952082
  WF centre and spread   20  (  1.378448,  2.388092,  1.635732 )    37.42298349
  WF centre and spread   21  (  1.403336,  4.210595, -0.204962 )     1.06946304
  WF centre and spread   22  (  1.433086,  4.187545, -0.177830 )     1.32915432
  WF centre and spread   23  (  1.431913,  4.177381, -0.176692 )     1.30846407
  WF centre and spread   24  (  1.403300,  1.403597,  0.201827 )     1.06508353
  WF centre and spread   25  (  1.439338,  1.430807,  0.175130 )     1.33839859
  WF centre and spread   26  (  1.439645,  1.436323,  0.175197 )     1.32813321
  WF centre and spread   27  (  4.210595,  1.403591,  3.771037 )     1.05758268
  WF centre and spread   28  (  4.238090,  1.374685,  3.792781 )     1.31982892
  WF centre and spread   29  (  4.235606,  1.375599,  3.793714 )     1.32492859
  WF centre and spread   30  (  4.210890,  4.210825,  4.171991 )     1.05901027
  WF centre and spread   31  (  4.241412,  4.235072,  4.146663 )     1.30631719
  WF centre and spread   32  (  4.235417,  4.234276,  4.146343 )     1.30524061
  WF centre and spread   33  (  4.210475,  1.403711,  0.203522 )     1.07529805
  WF centre and spread   34  (  4.173179,  1.440750,  0.176323 )     1.34045641
  WF centre and spread   35  (  4.172508,  1.444809,  0.176568 )     1.33146330
  WF centre and spread   36  (  4.210285,  4.210351, -0.206623 )     1.06294568
  WF centre and spread   37  (  4.184629,  4.183583, -0.178581 )     1.31131055
  WF centre and spread   38  (  4.187952,  4.183391, -0.177338 )     1.28910587
  WF centre and spread   39  (  1.403285,  4.210646,  4.178001 )     1.05097765
  WF centre and spread   40  (  1.380808,  4.232246,  4.147153 )     1.28789943
  WF centre and spread   41  (  1.383299,  4.233363,  4.147328 )     1.31165133
  WF centre and spread   42  (  1.403021,  1.403548,  3.768111 )     1.07056012
  WF centre and spread   43  (  1.381061,  1.378486,  3.791464 )     1.32153599
  WF centre and spread   44  (  1.383223,  1.378576,  3.791274 )     1.31323004
  WF centre and spread   45  (  0.000029, -0.225053,  2.019575 )     1.49608026
  WF centre and spread   46  ( -0.004640, -0.254423,  1.985089 )     1.04262798
  WF centre and spread   47  ( -0.001831, -0.303903,  1.985107 )     1.06576460
  WF centre and spread   48  ( -0.000823,  0.221586,  5.914993 )     1.50063146
  WF centre and spread   49  ( -0.002829,  0.253707,  5.954073 )     1.05320983
  WF centre and spread   50  ( -0.000453,  0.305529,  5.954413 )     1.06900333
  WF centre and spread   51  (  2.808199,  2.583216,  6.021901 )     1.63892155
  WF centre and spread   52  (  2.805759,  2.551753,  5.954854 )     1.04803308
  WF centre and spread   53  (  2.806388,  2.498922,  5.954383 )     1.08466707
  WF centre and spread   54  (  2.806793,  3.030123,  1.897326 )     1.61987517
  WF centre and spread   55  (  2.804051,  3.060106,  1.984854 )     1.05102242
  WF centre and spread   56  (  2.805206,  3.109755,  1.984667 )     1.06557502
  Sum of centres and spreads (111.614506,111.940723,131.941313 )   238.36822437

   1400    -0.728E-02     3.0171009116      238.3682243706     127.76  <-- CONV
        O_D=      2.6904011 O_OD=     78.3642218 O_TOT=    238.3682244 <-- SPRD
 Delta: O_D= -0.6542136E-02 O_OD= -0.7372727E-03 O_TOT= -0.7279408E-02 <-- DLTA
 ------------------------------------------------------------------------------
 Cycle:   1600
  WF centre and spread    1  (  0.000228, -0.000175, -0.000328 )     1.36511021
  WF centre and spread    2  ( -0.000564,  0.000654, -0.000745 )     1.36678605
  WF centre and spread    3  ( -0.000273, -0.001507, -0.000932 )     1.33388638
  WF centre and spread    4  (  0.000136, -0.000052,  3.969559 )     1.36142139
  WF centre and spread    5  ( -0.000143, -0.000272,  3.969361 )     1.36147053
  WF centre and spread    6  (  0.000762, -0.001432,  3.970267 )     1.32856767
  WF centre and spread    7  (  2.806916,  2.807198,  3.969157 )     1.36500799
  WF centre and spread    8  (  2.806640,  2.807436,  3.969643 )     1.36300089
  WF centre and spread    9  (  2.807398,  2.806574,  3.969542 )     1.33455422
  WF centre and spread   10  (  2.807005,  2.806604, -0.001139 )     1.36091630
  WF centre and spread   11  (  2.807130,  2.807017, -0.000262 )     1.36092530
  WF centre and spread   12  (  2.806848,  2.806398, -0.000171 )     1.33035495
  WF centre and spread   13  ( -0.010291, -0.385659, -0.586343 )    20.19747823
  WF centre and spread   14  ( -0.026257,  0.180383,  0.009023 )    11.88277377
  WF centre and spread   15  ( -0.015071, -1.978815,  2.607989 )    25.05508068
  WF centre and spread   16  (  0.608848,  0.035798,  3.440339 )    28.54677109
  WF centre and spread   17  (  2.815690,  2.836232,  3.789986 )    18.61676660
  WF centre and spread   18  (  2.970799,  2.845445,  3.965779 )    13.11385654
  WF centre and spread   19  (  2.807565,  4.912512, -1.982313 )    22.25006199
  WF centre and spread   20  (  1.350795,  2.404324,  1.651105 )    37.64049786
  WF centre and spread   21  (  1.403360,  4.210576, -0.205014 )     1.06924048
  WF centre and spread   22  (  1.433661,  4.187043, -0.177893 )     1.33139899
  WF centre and spread   23  (  1.432355,  4.176829, -0.176745 )     1.31100978
  WF centre and spread   24  (  1.403314,  1.403611,  0.201712 )     1.06472002
  WF centre and spread   25  (  1.440409,  1.431602,  0.175200 )     1.34290588
  WF centre and spread   26  (  1.440487,  1.437176,  0.175246 )     1.33211705
  WF centre and spread   27  (  4.210598,  1.403593,  3.771055 )     1.05733943
  WF centre and spread   28  (  4.238757,  1.374082,  3.792804 )     1.32216599
  WF centre and spread   29  (  4.236304,  1.374731,  3.793698 )     1.32716640
  WF centre and spread   30  (  4.210892,  4.210842,  4.172131 )     1.05915018
  WF centre and spread   31  (  4.242296,  4.235930,  4.146746 )     1.30904806
  WF centre and spread   32  (  4.236367,  4.235427,  4.146428 )     1.30802504
[...]
  WF centre and spread   13  (  0.022845,  0.018559,  0.137507 )    16.56215827
  WF centre and spread   14  (  0.105898,  0.081108,  0.001966 )    11.31205915
  WF centre and spread   15  ( -0.036755, -3.347004,  2.081185 )    22.73205996
  WF centre and spread   16  (  0.473215, -0.387100,  3.454561 )    24.58546290
  WF centre and spread   17  (  2.828147,  2.823675,  4.090183 )    16.85697085
  WF centre and spread   18  (  2.902477,  2.877038,  3.960182 )    11.35971455
  WF centre and spread   19  (  2.696879,  4.976229, -1.991327 )    22.45349118
  WF centre and spread   20  (  0.107608,  2.791506,  1.708362 )    40.96166107
  WF centre and spread   21  (  1.403728,  4.210488, -0.203094 )     1.06498488
  WF centre and spread   22  (  1.444125,  4.171073, -0.177268 )     1.35776652
  WF centre and spread   23  (  1.443188,  4.171274, -0.176365 )     1.35823183
  WF centre and spread   24  (  1.403481,  1.403594,  0.202957 )     1.06108661
  WF centre and spread   25  (  1.455943,  1.444446,  0.177875 )     1.38070476
  WF centre and spread   26  (  1.453229,  1.450274,  0.177181 )     1.37424918
  WF centre and spread   27  (  4.210802,  1.403596,  3.769290 )     1.04969778
  WF centre and spread   28  (  4.245819,  1.364000,  3.792569 )     1.36167844
  WF centre and spread   29  (  4.249039,  1.361348,  3.792059 )     1.36049873
  WF centre and spread   30  (  4.210575,  4.210689,  4.175342 )     1.05692269
  WF centre and spread   31  (  4.254049,  4.252459,  4.147490 )     1.37291031
  WF centre and spread   32  (  4.253436,  4.258862,  4.147240 )     1.37778809
  WF centre and spread   33  (  4.210586,  1.403625,  0.203445 )     1.06944714
  WF centre and spread   34  (  4.167372,  1.442261,  0.178466 )     1.36891119
  WF centre and spread   35  (  4.169635,  1.442994,  0.178575 )     1.36448569
  WF centre and spread   36  (  4.210243,  4.210483, -0.205022 )     1.06552403
  WF centre and spread   37  (  4.173583,  4.176497, -0.178520 )     1.36102155
  WF centre and spread   38  (  4.176531,  4.177334, -0.177476 )     1.35323391
  WF centre and spread   39  (  1.403367,  4.210616,  4.175305 )     1.05424783
  WF centre and spread   40  (  1.366949,  4.247083,  4.148532 )     1.36017893
  WF centre and spread   41  (  1.365017,  4.251229,  4.148289 )     1.36762464
  WF centre and spread   42  (  1.403172,  1.403705,  3.768272 )     1.05486062
  WF centre and spread   43  (  1.371896,  1.365417,  3.791601 )     1.36381425
  WF centre and spread   44  (  1.372835,  1.363356,  3.790262 )     1.35152354
  WF centre and spread   45  (  0.000398, -0.225275,  2.072565 )     1.56572152
  WF centre and spread   46  ( -0.003435, -0.254492,  1.984881 )     1.03627137
  WF centre and spread   47  ( -0.001429, -0.306345,  1.985027 )     1.06321657
  WF centre and spread   48  (  0.000551,  0.226623,  5.882078 )     1.57717280
  WF centre and spread   49  ( -0.001622,  0.254628,  5.953847 )     1.05196409
  WF centre and spread   50  ( -0.000423,  0.304813,  5.953983 )     1.06285926
  WF centre and spread   51  (  2.807671,  2.582084,  6.056048 )     1.68963703
  WF centre and spread   52  (  2.805065,  2.552461,  5.954563 )     1.03814869
  WF centre and spread   53  (  2.806741,  2.500114,  5.954388 )     1.08680860
  WF centre and spread   54  (  2.807662,  3.033427,  1.885295 )     1.68110283
  WF centre and spread   55  (  2.804255,  3.060504,  1.984400 )     1.04024418
  WF centre and spread   56  (  2.806941,  3.110266,  1.984705 )     1.05904431
  Sum of centres and spreads (110.194469,110.906590,132.557947 )   228.32297329

   9600     0.833E-02    15.3183915208      228.3229732907     876.15  <-- CONV
        O_D=      1.6055521 O_OD=     69.4038197 O_TOT=    228.3229733 <-- SPRD
 Delta: O_D= -0.3209726E-02 O_OD=  0.1153736E-01 O_TOT=  0.8327637E-02 <-- DLTA
 ------------------------------------------------------------------------------
 Cycle:   9800
  WF centre and spread    1  ( -0.000195, -0.000041, -0.000386 )     1.36282494
  WF centre and spread    2  ( -0.000326,  0.000141, -0.000445 )     1.36399157
  WF centre and spread    3  (  0.000679, -0.001003, -0.000407 )     1.33244015
  WF centre and spread    4  ( -0.000083, -0.000080,  3.969695 )     1.36124746
  WF centre and spread    5  ( -0.000030, -0.000062,  3.969233 )     1.36082880
  WF centre and spread    6  (  0.000628, -0.001210,  3.970185 )     1.32829630
  WF centre and spread    7  (  2.806868,  2.806988,  3.969576 )     1.36298433
  WF centre and spread    8  (  2.806910,  2.807185,  3.969222 )     1.36372573
  WF centre and spread    9  (  2.807165,  2.805476,  3.969104 )     1.33540544
  WF centre and spread   10  (  2.806848,  2.806976,  0.000372 )     1.36098125
  WF centre and spread   11  (  2.807195,  2.807045, -0.000198 )     1.36253900
  WF centre and spread   12  (  2.807615,  2.805609,  0.000515 )     1.32954917
  WF centre and spread   13  (  0.023540,  0.019623,  0.140594 )    16.56578756
  WF centre and spread   14  (  0.109027,  0.080569,  0.001766 )    11.30407728
  WF centre and spread   15  ( -0.025914, -3.352176,  2.099856 )    22.61971739
  WF centre and spread   16  (  0.444138, -0.380283,  3.468048 )    24.40853126
  WF centre and spread   17  (  2.828158,  2.823131,  4.091120 )    16.82155741
  WF centre and spread   18  (  2.903660,  2.877347,  3.959873 )    11.34405730
  WF centre and spread   19  (  2.699445,  4.971708, -1.986402 )    22.38900958
  WF centre and spread   20  (  0.087894,  2.793902,  1.718889 )    40.88506260
  WF centre and spread   21  (  1.403734,  4.210476, -0.203091 )     1.06356528
  WF centre and spread   22  (  1.444242,  4.170862, -0.177249 )     1.35770880
  WF centre and spread   23  (  1.443340,  4.171284, -0.176371 )     1.35748417
  WF centre and spread   24  (  1.403481,  1.403590,  0.203025 )     1.05980976
  WF centre and spread   25  (  1.456042,  1.444556,  0.177862 )     1.38019265
  WF centre and spread   26  (  1.453371,  1.450357,  0.177166 )     1.37373634
  WF centre and spread   27  (  4.210817,  1.403599,  3.769238 )     1.04883296
  WF centre and spread   28  (  4.245804,  1.363895,  3.792540 )     1.36172311
  WF centre and spread   29  (  4.249202,  1.361239,  3.792041 )     1.35926983
  WF centre and spread   30  (  4.210573,  4.210683,  4.175219 )     1.05624805
  WF centre and spread   31  (  4.254164,  4.252579,  4.147478 )     1.37330065
  WF centre and spread   32  (  4.253569,  4.259073,  4.147223 )     1.37787236
  WF centre and spread   33  (  4.210581,  1.403617,  0.203515 )     1.06699250
  WF centre and spread   34  (  4.167476,  1.442220,  0.178488 )     1.36809263
  WF centre and spread   35  (  4.169759,  1.442705,  0.178616 )     1.36311468
  WF centre and spread   36  (  4.210251,  4.210483, -0.204993 )     1.06425630
  WF centre and spread   37  (  4.173604,  4.176520, -0.178507 )     1.36039155
  WF centre and spread   38  (  4.176543,  4.177441, -0.177483 )     1.35251375
  WF centre and spread   39  (  1.403384,  4.210632,  4.175130 )     1.05134863
  WF centre and spread   40  (  1.366990,  4.247076,  4.148523 )     1.35878133
  WF centre and spread   41  (  1.364916,  4.251301,  4.148275 )     1.36651862
  WF centre and spread   42  (  1.403177,  1.403692,  3.768288 )     1.05328971
  WF centre and spread   43  (  1.371947,  1.365420,  3.791584 )     1.36282582
  WF centre and spread   44  (  1.372809,  1.363330,  3.790284 )     1.35108554
  WF centre and spread   45  (  0.000439, -0.225268,  2.072653 )     1.56218728
  WF centre and spread   46  ( -0.003363, -0.254472,  1.984873 )     1.03559798
  WF centre and spread   47  ( -0.001404, -0.306413,  1.985001 )     1.06215944
  WF centre and spread   48  (  0.000575,  0.226665,  5.882340 )     1.57201768
  WF centre and spread   49  ( -0.001652,  0.254606,  5.953848 )     1.05078981
  WF centre and spread   50  ( -0.000423,  0.304789,  5.953976 )     1.06258651
  WF centre and spread   51  (  2.807703,  2.582059,  6.056187 )     1.68440648
  WF centre and spread   52  (  2.805049,  2.552480,  5.954566 )     1.03762066
  WF centre and spread   53  (  2.806730,  2.500094,  5.954400 )     1.08628650
  WF centre and spread   54  (  2.807690,  3.033443,  1.885439 )     1.67714651
  WF centre and spread   55  (  2.804262,  3.060535,  1.984394 )     1.03932311
  WF centre and spread   56  (  2.806948,  3.110244,  1.984698 )     1.05850058
  Sum of centres and spreads (110.165551,110.906237,132.609384 )   227.78019206

   9800    -0.248E-02     3.9125719170      227.7801920632     894.26  <-- CONV
        O_D=      1.3412990 O_OD=     69.1252916 O_TOT=    227.7801921 <-- SPRD
 Delta: O_D= -0.6851424E-03 O_OD= -0.1790909E-02 O_TOT= -0.2476052E-02 <-- DLTA
 ------------------------------------------------------------------------------
 Cycle:  10000
  WF centre and spread    1  ( -0.000191, -0.000038, -0.000376 )     1.36232566
  WF centre and spread    2  ( -0.000322,  0.000137, -0.000447 )     1.36344930
  WF centre and spread    3  (  0.000700, -0.001002, -0.000417 )     1.33227216
  WF centre and spread    4  ( -0.000081, -0.000081,  3.969692 )     1.36080893
  WF centre and spread    5  ( -0.000024, -0.000072,  3.969224 )     1.36031406
  WF centre and spread    6  (  0.000635, -0.001193,  3.970176 )     1.32815912
  WF centre and spread    7  (  2.806869,  2.806984,  3.969574 )     1.36253676
  WF centre and spread    8  (  2.806924,  2.807181,  3.969221 )     1.36321119
  WF centre and spread    9  (  2.807157,  2.805483,  3.969119 )     1.33530776
  WF centre and spread   10  (  2.806844,  2.806976,  0.000387 )     1.36052260
  WF centre and spread   11  (  2.807206,  2.807040, -0.000193 )     1.36176226
  WF centre and spread   12  (  2.807627,  2.805602,  0.000520 )     1.32946416
  WF centre and spread   13  (  0.024106,  0.019833,  0.144391 )    16.56480003
  WF centre and spread   14  (  0.110743,  0.078707,  0.001514 )    11.29482835
  WF centre and spread   15  ( -0.020945, -3.356636,  2.097463 )    22.53792900
  WF centre and spread   16  (  0.448670, -0.376771,  3.468025 )    24.31699847
  WF centre and spread   17  (  2.828284,  2.822625,  4.090230 )    16.80277685
  WF centre and spread   18  (  2.903774,  2.877329,  3.959231 )    11.33801667
  WF centre and spread   19  (  2.692587,  4.970880, -1.981835 )    22.35442889
  WF centre and spread   20  (  0.091127,  2.807059,  1.713996 )    40.91328421
  WF centre and spread   21  (  1.403737,  4.210468, -0.203069 )     1.06239494
  WF centre and spread   22  (  1.444389,  4.170627, -0.177239 )     1.35746637
  WF centre and spread   23  (  1.443492,  4.171204, -0.176366 )     1.35715702
  WF centre and spread   24  (  1.403476,  1.403593,  0.203049 )     1.05869057
  WF centre and spread   25  (  1.456094,  1.444652,  0.177857 )     1.37959897
  WF centre and spread   26  (  1.453506,  1.450451,  0.177163 )     1.37382914
  WF centre and spread   27  (  4.210827,  1.403598,  3.769202 )     1.04840116
  WF centre and spread   28  (  4.245829,  1.363771,  3.792523 )     1.36164199
  WF centre and spread   29  (  4.249384,  1.361175,  3.792013 )     1.35897358
  WF centre and spread   30  (  4.210568,  4.210688,  4.175134 )     1.05581364
  WF centre and spread   31  (  4.254267,  4.252686,  4.147468 )     1.37315972
  WF centre and spread   32  (  4.253689,  4.259258,  4.147212 )     1.37807238
  WF centre and spread   33  (  4.210581,  1.403606,  0.203572 )     1.06548460
  WF centre and spread   34  (  4.167628,  1.442150,  0.178506 )     1.36751986
  WF centre and spread   35  (  4.169897,  1.442432,  0.178623 )     1.36266177
  WF centre and spread   36  (  4.210257,  4.210483, -0.204963 )     1.06322809
  WF centre and spread   37  (  4.173613,  4.176548, -0.178521 )     1.35980590
  WF centre and spread   38  (  4.176575,  4.177519, -0.177509 )     1.35223851
  WF centre and spread   39  (  1.403389,  4.210636,  4.175024 )     1.05085937
  WF centre and spread   40  (  1.367011,  4.247113,  4.148498 )     1.35850567
  WF centre and spread   41  (  1.364872,  4.251340,  4.148256 )     1.36637883
  WF centre and spread   42  (  1.403176,  1.403692,  3.768256 )     1.05263247
  WF centre and spread   43  (  1.371973,  1.365423,  3.791573 )     1.36239517
  WF centre and spread   44  (  1.372799,  1.363305,  3.790289 )     1.35064447
  WF centre and spread   45  (  0.000461, -0.225275,  2.072809 )     1.56163148
  WF centre and spread   46  ( -0.003273, -0.254451,  1.984867 )     1.03486027
  WF centre and spread   47  ( -0.001368, -0.306394,  1.985003 )     1.06169161
  WF centre and spread   48  (  0.000594,  0.226687,  5.882434 )     1.57014740
  WF centre and spread   49  ( -0.001649,  0.254564,  5.953857 )     1.05003868
  WF centre and spread   50  ( -0.000412,  0.304788,  5.953977 )     1.06253493
  WF centre and spread   51  (  2.807720,  2.582037,  6.056233 )     1.68152219
  WF centre and spread   52  (  2.805094,  2.552456,  5.954571 )     1.03695811
  WF centre and spread   53  (  2.806723,  2.500081,  5.954417 )     1.08588370
  WF centre and spread   54  (  2.807703,  3.033469,  1.885617 )     1.67495027
  WF centre and spread   55  (  2.804297,  3.060535,  1.984398 )     1.03860828
  WF centre and spread   56  (  2.806951,  3.110263,  1.984698 )     1.05799863
  Sum of centres and spreads (110.175559,110.915223,132.608923 )   227.53757615

  10000    -0.301E-03     1.2547651263      227.5375761465     912.46  <-- CONV
        O_D=      1.3095475 O_OD=     68.9144272 O_TOT=    227.5375761 <-- SPRD
 Delta: O_D= -0.6496912E-04 O_OD= -0.2360103E-03 O_TOT= -0.3009794E-03 <-- DLTA
 ------------------------------------------------------------------------------
 Final State
  WF centre and spread    1  ( -0.000191, -0.000038, -0.000376 )     1.36232566
  WF centre and spread    2  ( -0.000322,  0.000137, -0.000447 )     1.36344930
  WF centre and spread    3  (  0.000700, -0.001002, -0.000417 )     1.33227216
  WF centre and spread    4  ( -0.000081, -0.000081,  3.969692 )     1.36080893
  WF centre and spread    5  ( -0.000024, -0.000072,  3.969224 )     1.36031406
  WF centre and spread    6  (  0.000635, -0.001193,  3.970176 )     1.32815912
  WF centre and spread    7  (  2.806869,  2.806984,  3.969574 )     1.36253676
  WF centre and spread    8  (  2.806924,  2.807181,  3.969221 )     1.36321119
  WF centre and spread    9  (  2.807157,  2.805483,  3.969119 )     1.33530776
  WF centre and spread   10  (  2.806844,  2.806976,  0.000387 )     1.36052260
  WF centre and spread   11  (  2.807206,  2.807040, -0.000193 )     1.36176226
  WF centre and spread   12  (  2.807627,  2.805602,  0.000520 )     1.32946416
  WF centre and spread   13  (  0.024106,  0.019833,  0.144391 )    16.56480003
  WF centre and spread   14  (  0.110743,  0.078707,  0.001514 )    11.29482835
  WF centre and spread   15  ( -0.020945, -3.356636,  2.097463 )    22.53792900
  WF centre and spread   16  (  0.448670, -0.376771,  3.468025 )    24.31699847
  WF centre and spread   17  (  2.828284,  2.822625,  4.090230 )    16.80277685
  WF centre and spread   18  (  2.903774,  2.877329,  3.959231 )    11.33801667
  WF centre and spread   19  (  2.692587,  4.970880, -1.981835 )    22.35442889
  WF centre and spread   20  (  0.091127,  2.807059,  1.713996 )    40.91328421
  WF centre and spread   21  (  1.403737,  4.210468, -0.203069 )     1.06239494
  WF centre and spread   22  (  1.444389,  4.170627, -0.177239 )     1.35746637
  WF centre and spread   23  (  1.443492,  4.171204, -0.176366 )     1.35715702
  WF centre and spread   24  (  1.403476,  1.403593,  0.203049 )     1.05869057
  WF centre and spread   25  (  1.456094,  1.444652,  0.177857 )     1.37959897
  WF centre and spread   26  (  1.453506,  1.450451,  0.177163 )     1.37382914
  WF centre and spread   27  (  4.210827,  1.403598,  3.769202 )     1.04840116
  WF centre and spread   28  (  4.245829,  1.363771,  3.792523 )     1.36164199
  WF centre and spread   29  (  4.249384,  1.361175,  3.792013 )     1.35897358
  WF centre and spread   30  (  4.210568,  4.210688,  4.175134 )     1.05581364
  WF centre and spread   31  (  4.254267,  4.252686,  4.147468 )     1.37315972
  WF centre and spread   32  (  4.253689,  4.259258,  4.147212 )     1.37807238
  WF centre and spread   33  (  4.210581,  1.403606,  0.203572 )     1.06548460
  WF centre and spread   34  (  4.167628,  1.442150,  0.178506 )     1.36751986
  WF centre and spread   35  (  4.169897,  1.442432,  0.178623 )     1.36266177
  WF centre and spread   36  (  4.210257,  4.210483, -0.204963 )     1.06322809
  WF centre and spread   37  (  4.173613,  4.176548, -0.178521 )     1.35980590
  WF centre and spread   38  (  4.176575,  4.177519, -0.177509 )     1.35223851
  WF centre and spread   39  (  1.403389,  4.210636,  4.175024 )     1.05085937
  WF centre and spread   40  (  1.367011,  4.247113,  4.148498 )     1.35850567
  WF centre and spread   41  (  1.364872,  4.251340,  4.148256 )     1.36637883
  WF centre and spread   42  (  1.403176,  1.403692,  3.768256 )     1.05263247
  WF centre and spread   43  (  1.371973,  1.365423,  3.791573 )     1.36239517
  WF centre and spread   44  (  1.372799,  1.363305,  3.790289 )     1.35064447
  WF centre and spread   45  (  0.000461, -0.225275,  2.072809 )     1.56163148
  WF centre and spread   46  ( -0.003273, -0.254451,  1.984867 )     1.03486027
  WF centre and spread   47  ( -0.001368, -0.306394,  1.985003 )     1.06169161
  WF centre and spread   48  (  0.000594,  0.226687,  5.882434 )     1.57014740
  WF centre and spread   49  ( -0.001649,  0.254564,  5.953857 )     1.05003868
  WF centre and spread   50  ( -0.000412,  0.304788,  5.953977 )     1.06253493
  WF centre and spread   51  (  2.807720,  2.582037,  6.056233 )     1.68152219
  WF centre and spread   52  (  2.805094,  2.552456,  5.954571 )     1.03695811
  WF centre and spread   53  (  2.806723,  2.500081,  5.954417 )     1.08588370
  WF centre and spread   54  (  2.807703,  3.033469,  1.885617 )     1.67495027
  WF centre and spread   55  (  2.804297,  3.060535,  1.984398 )     1.03860828
  WF centre and spread   56  (  2.806951,  3.110263,  1.984698 )     1.05799863
  Sum of centres and spreads (110.175559,110.915223,132.608923 )   227.53757615

         Spreads (Ang^2)       Omega I      =   157.313601501
        ================       Omega D      =     1.309547472
                               Omega OD     =    68.914427174
    Final Spread (Ang^2)       Omega Total  =   227.537576147
 ------------------------------------------------------------------------------

 Writing checkpoint file smo.chk... done

 *---------------------------------------------------------------------------*
 |                               PLOTTING                                    |
 *---------------------------------------------------------------------------*


 Calculating interpolated band-structure

 Time to calculate interpolated band structure       2.086 (sec)

  
  Omega Invariant:   1-s^2 =   157.313601499 (Ang^2)
                   -2log s =  1274.766153377 (Ang^2)
                    acos^2 =   253.692615190 (Ang^2)

 *===========================================================================*
 |                             TIMING INFORMATION                            |
 *===========================================================================*
 |    Tag                                                Ncalls      Time (s)|
 |---------------------------------------------------------------------------|
 |kmesh: get                                        :         1         0.114|
 |overlap: read                                     :         1         4.522|
 |wann: main                                        :         1       912.058|
 |plot: main                                        :         1         6.144|
 *---------------------------------------------------------------------------*
 All done: wannier90 exiting
