
     Program PWSCF v.7.5 starts on 29Nov2025 at 20:36:15 
        Git branch: develop
        Last git commit: 70e07caa2a5fab3dd9374bc01196f67e923fc5ea
        Last git commit date: Mon Aug 18 10:06:47 2025 +0000
        Last git commit subject: Merge branch 'stressed-by-optional-variables' into

     This program is part of the open-source Quantum ESPRESSO suite
     for quantum simulation of materials; please cite
         "P. Giannozzi et al., J. Phys.:Condens. Matter 21 395502 (2009);
         "P. Giannozzi et al., J. Phys.:Condens. Matter 29 465901 (2017);
         "P. Giannozzi et al., J. Chem. Phys. 152 154105 (2020);
          URL http://www.quantum-espresso.org", 
     in publications or presentations arising from this work. More details at
     http://www.quantum-espresso.org/quote

     Parallel version (MPI), running on   128 processors

     MPI processes distributed on     1 nodes
     973498 MiB available memory on the printing compute node when the environment starts

     Waiting for input...
     Reading input from standard input

     Current dimensions of program PWSCF are:
     Max number of different atomic species (ntypx) = 10
     Max number of k-points (npk) =  40000
     Max angular momentum in pseudopotentials (lmaxx) =  4
     file Sr.pz-spn-kjpaw_psl.1.0.0.UPF: wavefunction(s)  4P renormalized
     file Mo.pz-spn-kjpaw_psl.1.0.0.UPF: wavefunction(s)  4S 4D renormalized
     file O.pz-n-kjpaw_psl.1.0.0.UPF: wavefunction(s)  2S 2P renormalized

     Atomic positions and unit cell read from directory:
     ./out/smo.save/

     Found identity + (  0.5000 -0.5000 -0.5000) symmetry
     This is a supercell, fractional translations are disabled
     Message from routine setup:
     using ibrav=0 with symmetry is DISCOURAGED, use correct ibrav instead

     K-points division:     npool     =     128
     Subspace diagonalization in iterative solution of the eigenvalue problem:
     a serial algorithm will be used

     Message from routine divide_et_impera:
     suboptimal parallelization: some nodes have no k-points

     G-vector sticks info
     --------------------
     sticks:   dense  smooth     PW     G-vecs:    dense   smooth      PW
     Sum        5385    2701    749               419469   148351   21815

     Using Slab Decomposition



     bravais-lattice index     =            0
     lattice parameter (alat)  =      10.6088  a.u.
     unit-cell volume          =    1688.5722 (a.u.)^3
     number of atoms/cell      =           20
     number of atomic types    =            3
     number of electrons       =       168.00
     number of Kohn-Sham states=          101
     kinetic-energy cutoff     =      75.0000  Ry
     charge density cutoff     =     600.0000  Ry
     Exchange-correlation= SLA  PZ   NOGX NOGC
                           (   1   1   0   0   0   0   0)

     celldm(1)=  10.608847  celldm(2)=   0.000000  celldm(3)=   0.000000
     celldm(4)=   0.000000  celldm(5)=   0.000000  celldm(6)=   0.000000

     crystal axes: (cart. coord. in units of alat)
               a(1) = (   1.000000   0.000000   0.000000 )  
               a(2) = (   0.000000   1.000000   0.000000 )  
               a(3) = (   0.000000   0.000000   1.414214 )  

     reciprocal axes: (cart. coord. in units 2 pi/alat)
               b(1) = (  1.000000  0.000000  0.000000 )  
               b(2) = (  0.000000  1.000000  0.000000 )  
               b(3) = (  0.000000  0.000000  0.707107 )  


     PseudoPot. # 1 for Sr read from file:
     ./pseudo/Sr.pz-spn-kjpaw_psl.1.0.0.UPF
     MD5 check sum: 14b1f655f5497b386c4f305353cf4fd4
     Pseudo is Projector augmented-wave + core cor, Zval = 10.0
     Generated using 'atomic' code by A. Dal Corso  v.7.3
     Shape of augmentation charge: PSQ
     Using radial grid of 1221 points,  6 beta functions with: 
                l(1) =   0
                l(2) =   0
                l(3) =   1
                l(4) =   1
                l(5) =   2
                l(6) =   2
     Q(r) pseudized with 0 coefficients 


     PseudoPot. # 2 for Mo read from file:
     ./pseudo/Mo.pz-spn-kjpaw_psl.1.0.0.UPF
     MD5 check sum: 2e12aff744a4785a34e7548d4bec1d21
     Pseudo is Projector augmented-wave + core cor, Zval = 14.0
     Generated using 'atomic' code by A. Dal Corso  v.7.3
     Shape of augmentation charge: PSQ
     Using radial grid of 1229 points,  6 beta functions with: 
                l(1) =   0
                l(2) =   0
                l(3) =   1
                l(4) =   1
                l(5) =   2
                l(6) =   2
     Q(r) pseudized with 0 coefficients 


     PseudoPot. # 3 for O  read from file:
     ./pseudo/O.pz-n-kjpaw_psl.1.0.0.UPF
     MD5 check sum: 71a951e35f67dc87891058fc5642ed8f
     Pseudo is Projector augmented-wave + core cor, Zval =  6.0
     Generated using 'atomic' code by A. Dal Corso  v.7.3
     Shape of augmentation charge: PSQ
     Using radial grid of 1095 points,  4 beta functions with: 
                l(1) =   0
                l(2) =   0
                l(3) =   1
                l(4) =   1
     Q(r) pseudized with 0 coefficients 


     atomic species   valence    mass     pseudopotential
     Sr               10.00    87.62000     Sr( 1.00)
     Mo               14.00    95.95000     Mo( 1.00)
     O                 6.00    15.99900     O ( 1.00)

      4 Sym. Ops., with inversion, found


                                    s                        frac. trans.

      isym =  1     identity                                     

 cryst.   s( 1) = (     1          0          0      )
                  (     0          1          0      )
                  (     0          0          1      )

 cart.    s( 1) = (  1.0000000  0.0000000  0.0000000 )
                  (  0.0000000  1.0000000  0.0000000 )
                  (  0.0000000  0.0000000  1.0000000 )


      isym =  2     180 deg rotation - cart. axis [1,0,0]        

 cryst.   s( 2) = (     1          0          0      )
                  (     0         -1          0      )
                  (     0          0         -1      )

 cart.    s( 2) = (  1.0000000  0.0000000  0.0000000 )
                  (  0.0000000 -1.0000000  0.0000000 )
                  (  0.0000000  0.0000000 -1.0000000 )


      isym =  3     inversion                                    

 cryst.   s( 3) = (    -1          0          0      )
                  (     0         -1          0      )
                  (     0          0         -1      )

 cart.    s( 3) = ( -1.0000000  0.0000000  0.0000000 )
                  (  0.0000000 -1.0000000  0.0000000 )
                  (  0.0000000  0.0000000 -1.0000000 )


      isym =  4     inv. 180 deg rotation - cart. axis [1,0,0]   

 cryst.   s( 4) = (    -1          0          0      )
                  (     0          1          0      )
                  (     0          0          1      )

 cart.    s( 4) = ( -1.0000000  0.0000000  0.0000000 )
                  (  0.0000000  1.0000000  0.0000000 )
                  (  0.0000000  0.0000000  1.0000000 )


   Cartesian axes

     site n.     atom                  positions (alat units)
         1        Sr     tau(   1) = (   0.0000000   0.5000000   0.3535535  )
         2        Sr     tau(   2) = (   0.0000000   0.5000000   1.0606604  )
         3        Sr     tau(   3) = (   0.5000000   0.0000000   1.0606604  )
         4        Sr     tau(   4) = (   0.5000000   0.0000000   0.3535535  )
         5        Mo     tau(   5) = (   0.0000000   0.0000000   0.0000000  )
         6        Mo     tau(   6) = (   0.0000000   0.0000000   0.7071069  )
         7        Mo     tau(   7) = (   0.5000000   0.5000000   0.7071069  )
         8        Mo     tau(   8) = (   0.5000000   0.5000000   0.0000000  )
         9        O      tau(   9) = (   0.2500000   0.7500000  -0.0188925  )
        10        O      tau(  10) = (   0.2500000   0.2500000   0.0188925  )
        11        O      tau(  11) = (   0.7500000   0.2500000   0.6882144  )
        12        O      tau(  12) = (   0.7500000   0.7500000   0.7259994  )
        13        O      tau(  13) = (   0.7500000   0.2500000   0.0188925  )
        14        O      tau(  14) = (   0.7500000   0.7500000  -0.0188925  )
        15        O      tau(  15) = (   0.2500000   0.7500000   0.7259994  )
        16        O      tau(  16) = (   0.2500000   0.2500000   0.6882144  )
        17        O      tau(  17) = (   0.0000000  -0.0267180   0.3535535  )
        18        O      tau(  18) = (   0.0000000   0.0267180   1.0606604  )
        19        O      tau(  19) = (   0.5000000   0.4732820   1.0606604  )
        20        O      tau(  20) = (   0.5000000   0.5267180   0.3535535  )

   Crystallographic axes

     site n.     atom                  positions (cryst. coord.)
         1        Sr     tau(   1) = (  0.0000000  0.5000000  0.2500000  )
         2        Sr     tau(   2) = (  0.0000000  0.5000000  0.7500000  )
         3        Sr     tau(   3) = (  0.5000000  0.0000000  0.7500000  )
         4        Sr     tau(   4) = (  0.5000000  0.0000000  0.2500000  )
         5        Mo     tau(   5) = (  0.0000000  0.0000000  0.0000000  )
         6        Mo     tau(   6) = (  0.0000000  0.0000000  0.5000000  )
         7        Mo     tau(   7) = (  0.5000000  0.5000000  0.5000000  )
         8        Mo     tau(   8) = (  0.5000000  0.5000000  0.0000000  )
         9        O      tau(   9) = (  0.2500000  0.7500000 -0.0133590  )
        10        O      tau(  10) = (  0.2500000  0.2500000  0.0133590  )
        11        O      tau(  11) = (  0.7500000  0.2500000  0.4866410  )
        12        O      tau(  12) = (  0.7500000  0.7500000  0.5133590  )
        13        O      tau(  13) = (  0.7500000  0.2500000  0.0133590  )
        14        O      tau(  14) = (  0.7500000  0.7500000 -0.0133590  )
        15        O      tau(  15) = (  0.2500000  0.7500000  0.5133590  )
        16        O      tau(  16) = (  0.2500000  0.2500000  0.4866410  )
        17        O      tau(  17) = (  0.0000000 -0.0267180  0.2500000  )
        18        O      tau(  18) = (  0.0000000  0.0267180  0.7500000  )
        19        O      tau(  19) = (  0.5000000  0.4732820  0.7500000  )
        20        O      tau(  20) = (  0.5000000  0.5267180  0.2500000  )

     number of k points=    71  Marzari-Vanderbilt smearing, width (Ry)=  0.0147
                       cart. coord. in units 2pi/alat
        k(    1) = (   0.0000000   0.0000000   0.0000000), wk =   0.0281690
        k(    2) = (   0.0000000   0.0500000   0.0000000), wk =   0.0281690
        k(    3) = (   0.0000000   0.1000000   0.0000000), wk =   0.0281690
        k(    4) = (   0.0000000   0.1500000   0.0000000), wk =   0.0281690
        k(    5) = (   0.0000000   0.2000000   0.0000000), wk =   0.0281690
        k(    6) = (   0.0000000   0.2500000   0.0000000), wk =   0.0281690
        k(    7) = (   0.0000000   0.3000000   0.0000000), wk =   0.0281690
        k(    8) = (   0.0000000   0.3500000   0.0000000), wk =   0.0281690
        k(    9) = (   0.0000000   0.4000000   0.0000000), wk =   0.0281690
        k(   10) = (   0.0000000   0.4500000   0.0000000), wk =   0.0281690
        k(   11) = (   0.0000000   0.5000000   0.0000000), wk =   0.0281690
        k(   12) = (   0.0500000   0.5000000   0.0000000), wk =   0.0281690
        k(   13) = (   0.1000000   0.5000000   0.0000000), wk =   0.0281690
        k(   14) = (   0.1500000   0.5000000   0.0000000), wk =   0.0281690
        k(   15) = (   0.2000000   0.5000000   0.0000000), wk =   0.0281690
        k(   16) = (   0.2500000   0.5000000   0.0000000), wk =   0.0281690
        k(   17) = (   0.3000000   0.5000000   0.0000000), wk =   0.0281690
        k(   18) = (   0.3500000   0.5000000   0.0000000), wk =   0.0281690
        k(   19) = (   0.4000000   0.5000000   0.0000000), wk =   0.0281690
        k(   20) = (   0.4500000   0.5000000   0.0000000), wk =   0.0281690
        k(   21) = (   0.5000000   0.5000000   0.0000000), wk =   0.0281690
        k(   22) = (   0.4500000   0.4500000   0.0000000), wk =   0.0281690
        k(   23) = (   0.4000000   0.4000000   0.0000000), wk =   0.0281690
        k(   24) = (   0.3500000   0.3500000   0.0000000), wk =   0.0281690
        k(   25) = (   0.3000000   0.3000000   0.0000000), wk =   0.0281690
        k(   26) = (   0.2500000   0.2500000   0.0000000), wk =   0.0281690
        k(   27) = (   0.2000000   0.2000000   0.0000000), wk =   0.0281690
        k(   28) = (   0.1500000   0.1500000   0.0000000), wk =   0.0281690
        k(   29) = (   0.1000000   0.1000000   0.0000000), wk =   0.0281690
        k(   30) = (   0.0500000   0.0500000   0.0000000), wk =   0.0281690
        k(   31) = (   0.0000000   0.0000000   0.0000000), wk =   0.0281690
        k(   32) = (   0.0000000   0.0000000   0.0353553), wk =   0.0281690
        k(   33) = (   0.0000000   0.0000000   0.0707107), wk =   0.0281690
        k(   34) = (   0.0000000   0.0000000   0.1060660), wk =   0.0281690
        k(   35) = (   0.0000000   0.0000000   0.1414213), wk =   0.0281690
        k(   36) = (   0.0000000   0.0000000   0.1767767), wk =   0.0281690
        k(   37) = (   0.0000000   0.0000000   0.2121320), wk =   0.0281690
        k(   38) = (   0.0000000   0.0000000   0.2474873), wk =   0.0281690
        k(   39) = (   0.0000000   0.0000000   0.2828427), wk =   0.0281690
        k(   40) = (   0.0000000   0.0000000   0.3181980), wk =   0.0281690
        k(   41) = (   0.0000000   0.0000000   0.3535533), wk =   0.0281690
        k(   42) = (   0.0000000   0.0500000   0.3535533), wk =   0.0281690
        k(   43) = (   0.0000000   0.1000000   0.3535533), wk =   0.0281690
        k(   44) = (   0.0000000   0.1500000   0.3535533), wk =   0.0281690
        k(   45) = (   0.0000000   0.2000000   0.3535533), wk =   0.0281690
        k(   46) = (   0.0000000   0.2500000   0.3535533), wk =   0.0281690
        k(   47) = (   0.0000000   0.3000000   0.3535533), wk =   0.0281690
        k(   48) = (   0.0000000   0.3500000   0.3535533), wk =   0.0281690
        k(   49) = (   0.0000000   0.4000000   0.3535533), wk =   0.0281690
        k(   50) = (   0.0000000   0.4500000   0.3535533), wk =   0.0281690
        k(   51) = (   0.0000000   0.5000000   0.3535533), wk =   0.0281690
        k(   52) = (   0.0500000   0.5000000   0.3535533), wk =   0.0281690
        k(   53) = (   0.1000000   0.5000000   0.3535533), wk =   0.0281690
        k(   54) = (   0.1500000   0.5000000   0.3535533), wk =   0.0281690
        k(   55) = (   0.2000000   0.5000000   0.3535533), wk =   0.0281690
        k(   56) = (   0.2500000   0.5000000   0.3535533), wk =   0.0281690
        k(   57) = (   0.3000000   0.5000000   0.3535533), wk =   0.0281690
        k(   58) = (   0.3500000   0.5000000   0.3535533), wk =   0.0281690
        k(   59) = (   0.4000000   0.5000000   0.3535533), wk =   0.0281690
        k(   60) = (   0.4500000   0.5000000   0.3535533), wk =   0.0281690
        k(   61) = (   0.5000000   0.5000000   0.3535533), wk =   0.0281690
        k(   62) = (   0.4500000   0.4500000   0.3535533), wk =   0.0281690
        k(   63) = (   0.4000000   0.4000000   0.3535533), wk =   0.0281690
        k(   64) = (   0.3500000   0.3500000   0.3535533), wk =   0.0281690
        k(   65) = (   0.3000000   0.3000000   0.3535533), wk =   0.0281690
        k(   66) = (   0.2500000   0.2500000   0.3535533), wk =   0.0281690
        k(   67) = (   0.2000000   0.2000000   0.3535533), wk =   0.0281690
        k(   68) = (   0.1500000   0.1500000   0.3535533), wk =   0.0281690
        k(   69) = (   0.1000000   0.1000000   0.3535533), wk =   0.0281690
        k(   70) = (   0.0500000   0.0500000   0.3535533), wk =   0.0281690
        k(   71) = (   0.0000000   0.0000000   0.3535533), wk =   0.0281690

                       cryst. coord.
        k(    1) = (   0.0000000   0.0000000   0.0000000), wk =   0.0281690
        k(    2) = (   0.0000000   0.0500000   0.0000000), wk =   0.0281690
        k(    3) = (   0.0000000   0.1000000   0.0000000), wk =   0.0281690
        k(    4) = (   0.0000000   0.1500000   0.0000000), wk =   0.0281690
        k(    5) = (   0.0000000   0.2000000   0.0000000), wk =   0.0281690
        k(    6) = (   0.0000000   0.2500000   0.0000000), wk =   0.0281690
        k(    7) = (   0.0000000   0.3000000   0.0000000), wk =   0.0281690
        k(    8) = (   0.0000000   0.3500000   0.0000000), wk =   0.0281690
        k(    9) = (   0.0000000   0.4000000   0.0000000), wk =   0.0281690
        k(   10) = (   0.0000000   0.4500000   0.0000000), wk =   0.0281690
        k(   11) = (   0.0000000   0.5000000   0.0000000), wk =   0.0281690
        k(   12) = (   0.0500000   0.5000000   0.0000000), wk =   0.0281690
        k(   13) = (   0.1000000   0.5000000   0.0000000), wk =   0.0281690
        k(   14) = (   0.1500000   0.5000000   0.0000000), wk =   0.0281690
        k(   15) = (   0.2000000   0.5000000   0.0000000), wk =   0.0281690
        k(   16) = (   0.2500000   0.5000000   0.0000000), wk =   0.0281690
        k(   17) = (   0.3000000   0.5000000   0.0000000), wk =   0.0281690
        k(   18) = (   0.3500000   0.5000000   0.0000000), wk =   0.0281690
        k(   19) = (   0.4000000   0.5000000   0.0000000), wk =   0.0281690
        k(   20) = (   0.4500000   0.5000000   0.0000000), wk =   0.0281690
        k(   21) = (   0.5000000   0.5000000   0.0000000), wk =   0.0281690
        k(   22) = (   0.4500000   0.4500000   0.0000000), wk =   0.0281690
        k(   23) = (   0.4000000   0.4000000   0.0000000), wk =   0.0281690
        k(   24) = (   0.3500000   0.3500000   0.0000000), wk =   0.0281690
        k(   25) = (   0.3000000   0.3000000   0.0000000), wk =   0.0281690
        k(   26) = (   0.2500000   0.2500000   0.0000000), wk =   0.0281690
        k(   27) = (   0.2000000   0.2000000   0.0000000), wk =   0.0281690
        k(   28) = (   0.1500000   0.1500000   0.0000000), wk =   0.0281690
        k(   29) = (   0.1000000   0.1000000   0.0000000), wk =   0.0281690
        k(   30) = (   0.0500000   0.0500000   0.0000000), wk =   0.0281690
        k(   31) = (   0.0000000   0.0000000   0.0000000), wk =   0.0281690
        k(   32) = (   0.0000000   0.0000000   0.0500000), wk =   0.0281690
        k(   33) = (   0.0000000   0.0000000   0.1000000), wk =   0.0281690
        k(   34) = (   0.0000000   0.0000000   0.1500000), wk =   0.0281690
        k(   35) = (   0.0000000   0.0000000   0.2000000), wk =   0.0281690
        k(   36) = (   0.0000000   0.0000000   0.2500000), wk =   0.0281690
        k(   37) = (   0.0000000   0.0000000   0.3000000), wk =   0.0281690
        k(   38) = (   0.0000000   0.0000000   0.3500000), wk =   0.0281690
        k(   39) = (   0.0000000   0.0000000   0.4000000), wk =   0.0281690
        k(   40) = (   0.0000000   0.0000000   0.4500000), wk =   0.0281690
        k(   41) = (   0.0000000   0.0000000   0.5000000), wk =   0.0281690
        k(   42) = (   0.0000000   0.0500000   0.5000000), wk =   0.0281690
        k(   43) = (   0.0000000   0.1000000   0.5000000), wk =   0.0281690
        k(   44) = (   0.0000000   0.1500000   0.5000000), wk =   0.0281690
        k(   45) = (   0.0000000   0.2000000   0.5000000), wk =   0.0281690
        k(   46) = (   0.0000000   0.2500000   0.5000000), wk =   0.0281690
        k(   47) = (   0.0000000   0.3000000   0.5000000), wk =   0.0281690
        k(   48) = (   0.0000000   0.3500000   0.5000000), wk =   0.0281690
        k(   49) = (   0.0000000   0.4000000   0.5000000), wk =   0.0281690
        k(   50) = (   0.0000000   0.4500000   0.5000000), wk =   0.0281690
        k(   51) = (   0.0000000   0.5000000   0.5000000), wk =   0.0281690
        k(   52) = (   0.0500000   0.5000000   0.5000000), wk =   0.0281690
        k(   53) = (   0.1000000   0.5000000   0.5000000), wk =   0.0281690
        k(   54) = (   0.1500000   0.5000000   0.5000000), wk =   0.0281690
        k(   55) = (   0.2000000   0.5000000   0.5000000), wk =   0.0281690
        k(   56) = (   0.2500000   0.5000000   0.5000000), wk =   0.0281690
        k(   57) = (   0.3000000   0.5000000   0.5000000), wk =   0.0281690
        k(   58) = (   0.3500000   0.5000000   0.5000000), wk =   0.0281690
        k(   59) = (   0.4000000   0.5000000   0.5000000), wk =   0.0281690
        k(   60) = (   0.4500000   0.5000000   0.5000000), wk =   0.0281690
        k(   61) = (   0.5000000   0.5000000   0.5000000), wk =   0.0281690
        k(   62) = (   0.4500000   0.4500000   0.5000000), wk =   0.0281690
        k(   63) = (   0.4000000   0.4000000   0.5000000), wk =   0.0281690
        k(   64) = (   0.3500000   0.3500000   0.5000000), wk =   0.0281690
        k(   65) = (   0.3000000   0.3000000   0.5000000), wk =   0.0281690
        k(   66) = (   0.2500000   0.2500000   0.5000000), wk =   0.0281690
        k(   67) = (   0.2000000   0.2000000   0.5000000), wk =   0.0281690
        k(   68) = (   0.1500000   0.1500000   0.5000000), wk =   0.0281690
        k(   69) = (   0.1000000   0.1000000   0.5000000), wk =   0.0281690
        k(   70) = (   0.0500000   0.0500000   0.5000000), wk =   0.0281690
        k(   71) = (   0.0000000   0.0000000   0.5000000), wk =   0.0281690

     Dense  grid:   419469 G-vectors     FFT dimensions: (  90,  90, 120)

     Smooth grid:   148351 G-vectors     FFT dimensions: (  60,  60,  90)

     Dynamical RAM for                 wfc:      28.54 MB

     Dynamical RAM for     wfc (w. buffer):      28.54 MB

     Dynamical RAM for           str. fact:      19.20 MB

     Dynamical RAM for           local pot:       0.00 MB

     Dynamical RAM for          nlocal pot:      67.83 MB

     Dynamical RAM for                qrad:       5.90 MB

     Dynamical RAM for          rho,v,vnew:      41.45 MB

     Dynamical RAM for           G-vectors:      25.13 MB

     Dynamical RAM for          h,s,v(r/c):       1.87 MB

     Dynamical RAM for          <psi|beta>:       0.37 MB

     Dynamical RAM for                 psi:      57.09 MB

     Dynamical RAM for                hpsi:      57.09 MB

     Dynamical RAM for                spsi:      57.09 MB

     Dynamical RAM for      wfcinit/wfcrot:      57.32 MB

     Dynamical RAM for           addusdens:      16.25 MB

     Estimated static dynamical RAM per process >     250.73 MB

     Estimated max dynamical RAM per process >     424.23 MB

     Estimated total dynamical RAM >      53.03 GB

     The potential is recalculated from file :
     ./out/smo.save/charge-density

     Starting wfcs are  120 randomized atomic wfcs
     Checking if some PAW data can be deallocated... 
       PAW data deallocated on  100 nodes for type:  1
       PAW data deallocated on  100 nodes for type:  2
       PAW data deallocated on   56 nodes for type:  3

     Band Structure Calculation
     Davidson diagonalization with overlap

     Computing kpt #:     1  of     1 on this pool
     c_bands:  2 eigenvalues not converged
     total cpu time spent up to now is      101.8 secs

     ethr =  2.38E-13,  avg # of iterations =119.8

     total cpu time spent up to now is      114.4 secs

     End of band structure calculation

          k = 0.0000 0.0000 0.0000 ( 18577 PWs)   bands (ev):

   -48.9594 -48.9581 -48.9568 -48.9555 -23.2794 -23.2622 -23.2615 -23.2581
   -23.2571 -23.2530 -23.1887 -23.1844 -23.1834 -23.1797 -23.1796 -23.1761
   -22.0949 -22.0630 -22.0588 -22.0432  -6.9783  -6.7357  -6.2698  -6.0932
    -6.0703  -6.0159  -5.8058  -5.7720  -5.3276  -5.3256  -5.3213  -5.2944
    -4.3782  -4.3544  -4.3158  -4.1216  -4.0932  -4.0907  -4.0848  -4.0698
    -4.0361  -3.7266  -3.6937  -3.6200   5.1576   5.1770   5.1871   5.2807
     5.3525   5.4140   5.6031   6.2451   6.2473   6.2480   7.1809   7.1839
     7.6404   7.6433   7.7188   7.7351   7.7770   7.7802   7.7890   7.8409
     8.2646   8.7226   8.7305   8.7802   9.0784   9.1023   9.1155   9.4479
     9.4598   9.7353   9.7385   9.7500  10.1439  10.1648  10.1703  10.1989
    11.6609  11.6828  11.6927  11.8506  14.2202  14.2896  14.3238  14.3603
    15.0740  15.1457  15.2300  15.4098  15.5123  15.6113  15.6965  15.7456
    15.8165  15.9248  16.5918  17.0690  17.1033

          k = 0.0000 0.0500 0.0000 ( 18595 PWs)   bands (ev):

   -48.9594 -48.9581 -48.9568 -48.9555 -23.2793 -23.2618 -23.2616 -23.2576
   -23.2567 -23.2525 -23.1887 -23.1851 -23.1836 -23.1800 -23.1800 -23.1766
   -22.0945 -22.0629 -22.0588 -22.0434  -6.9706  -6.7351  -6.2819  -6.0918
    -6.0682  -6.0120  -5.7981  -5.7735  -5.3447  -5.3333  -5.3294  -5.2994
    -4.3684  -4.3530  -4.3035  -4.1197  -4.0921  -4.0868  -4.0845  -4.0614
    -4.0369  -3.7298  -3.6951  -3.6227   5.1743   5.1928   5.1935   5.2805
     5.3686   5.4288   5.6148   6.2415   6.2504   6.2524   7.1883   7.1883
     7.4979   7.5999   7.7019   7.7320   7.7604   7.7744   7.7806   7.9807
     8.3103   8.7217   8.7257   8.7843   9.0421   9.0779   9.1155   9.4084
     9.4370   9.6975   9.7253   9.7263  10.1392  10.1553  10.1681  10.1872
    11.6812  11.7190  11.7251  11.8908  14.2216  14.2808  14.3254  14.3445
    15.0752  15.1268  15.2431  15.3879  15.5517  15.6319  15.7108  15.7486
    15.8355  15.9548  16.5901  17.0859  17.1351

          k = 0.0000 0.1000 0.0000 ( 18565 PWs)   bands (ev):

   -48.9593 -48.9580 -48.9569 -48.9556 -23.2788 -23.2617 -23.2608 -23.2563
   -23.2553 -23.2511 -23.1886 -23.1869 -23.1844 -23.1815 -23.1808 -23.1780
   -22.0933 -22.0628 -22.0590 -22.0440  -6.9475  -6.7334  -6.3145  -6.0872
    -6.0620  -6.0002  -5.7785  -5.7781  -5.3939  -5.3552  -5.3520  -5.3144
    -4.3490  -4.3413  -4.2687  -4.1139  -4.0925  -4.0887  -4.0667  -4.0391
    -4.0375  -3.7391  -3.6992  -3.6307   5.2078   5.2237   5.2428   5.2800
     5.4138   5.4758   5.6513   6.2228   6.2601   6.2748   7.2015   7.2104
     7.2887   7.4971   7.6524   7.7021   7.7209   7.7542   7.7667   8.1814
     8.4177   8.6970   8.7351   8.7990   8.9380   9.0085   9.1156   9.2962
     9.3736   9.5960   9.6567   9.6911  10.1215  10.1273  10.1518  10.1605
    11.7407  11.7952  11.8429  12.0045  14.2261  14.2527  14.2972  14.3305
    15.0708  15.0749  15.2617  15.3244  15.6680  15.7109  15.7263  15.7891
    15.8928  16.0429  16.5845  17.1356  17.1984

          k = 0.0000 0.1500 0.0000 ( 18557 PWs)   bands (ev):

   -48.9593 -48.9579 -48.9569 -48.9556 -23.2780 -23.2620 -23.2591 -23.2540
   -23.2529 -23.2489 -23.1899 -23.1884 -23.1862 -23.1838 -23.1815 -23.1803
   -22.0914 -22.0625 -22.0593 -22.0449  -6.9095  -6.7309  -6.3604  -6.0782
    -6.0520  -5.9808  -5.7857  -5.7545  -5.4692  -5.3882  -5.3847  -5.3388
    -4.3423  -4.3023  -4.2166  -4.1044  -4.1019  -4.0825  -4.0428  -4.0387
    -4.0020  -3.7543  -3.7054  -3.6439   5.2268   5.2793   5.3051   5.3241
     5.4803   5.5610   5.7158   6.1944   6.2763   6.3132   7.0790   7.2229
     7.2472   7.3713   7.5740   7.6085   7.6953   7.7058   7.7539   8.3767
     8.5398   8.6621   8.7507   8.7777   8.8338   8.9035   9.1162   9.1267
     9.2845   9.4535   9.5580   9.6367  10.0821  10.0861  10.0922  10.1460
    11.8352  11.9145  12.0156  12.1757  14.2022  14.2194  14.2353  14.3402
    14.9793  15.0637  15.2249  15.2519  15.7377  15.8559  15.8731  15.8815
    15.9884  16.1840  16.5736  17.2157  17.2961

          k = 0.0000 0.2000 0.0000 ( 18509 PWs)   bands (ev):

   -48.9592 -48.9578 -48.9570 -48.9557 -23.2769 -23.2624 -23.2567 -23.2510
   -23.2498 -23.2457 -23.1940 -23.1891 -23.1881 -23.1870 -23.1835 -23.1821
   -22.0888 -22.0621 -22.0598 -22.0461  -6.8569  -6.7277  -6.4126  -6.0636
    -6.0383  -5.9541  -5.7963  -5.7330  -5.5643  -5.4283  -5.4225  -5.3718
    -4.3330  -4.2577  -4.1537  -4.1147  -4.0913  -4.0724  -4.0478  -4.0032
    -3.9598  -3.7745  -3.7132  -3.6623   5.2443   5.2784   5.4167   5.4358
     5.5645   5.6854   5.8102   6.1597   6.2993   6.3695   6.8784   7.2410
     7.2515   7.2984   7.4721   7.4846   7.6302   7.6450   7.7361   8.5354
     8.5754   8.6369   8.6466   8.7702   8.7737   8.9090   8.9188   9.1159
     9.1911   9.2894   9.4493   9.5682  10.0099  10.0216  10.0334  10.1228
    11.9595  12.0674  12.2229  12.3870  14.1132  14.1277  14.2505  14.3563
    14.8559  15.0331  15.0959  15.2076  15.7673  16.0099  16.1051  16.1053
    16.1297  16.3693  16.5555  17.3228  17.4195

          k = 0.0000 0.2500 0.0000 ( 18505 PWs)   bands (ev):

   -48.9590 -48.9577 -48.9572 -48.9559 -23.2756 -23.2630 -23.2536 -23.2472
   -23.2459 -23.2418 -23.1989 -23.1930 -23.1910 -23.1877 -23.1875 -23.1827
   -22.0858 -22.0616 -22.0605 -22.0476  -6.7905  -6.7237  -6.4659  -6.0422
    -6.0215  -5.9207  -5.8097  -5.7192  -5.6734  -5.4709  -5.4608  -5.4122
    -4.3213  -4.2137  -4.1303  -4.0862  -4.0746  -4.0564  -4.0539  -3.9628
    -3.9164  -3.7988  -3.7221  -3.6858   5.2577   5.2775   5.5565   5.5760
     5.6671   5.8445   5.9318   6.1236   6.3294   6.4470   6.6927   7.1138
     7.2861   7.3362   7.3526   7.3638   7.5224   7.5584   7.7134   8.3435
     8.5406   8.6290   8.6641   8.6933   8.7715   8.8153   9.0307   9.1069
     9.1164   9.1186   9.3569   9.4903   9.9086   9.9487   9.9658  10.0895
    12.1082  12.2446  12.4499  12.6241  13.9810  14.0292  14.2726  14.3805
    14.7056  14.9422  14.9811  15.1383  15.8195  16.1677  16.2841  16.4039
    16.4178  16.5284  16.5881  17.4521  17.5606

          k = 0.0000 0.3000 0.0000 ( 18523 PWs)   bands (ev):

   -48.9589 -48.9576 -48.9573 -48.9560 -23.2742 -23.2637 -23.2498 -23.2427
   -23.2413 -23.2373 -23.2044 -23.1976 -23.1957 -23.1921 -23.1873 -23.1831
   -22.0825 -22.0615 -22.0609 -22.0493  -6.7186  -6.7113  -6.5169  -6.0134
    -6.0021  -5.8810  -5.8258  -5.7919  -5.7171  -5.5109  -5.4962  -5.4587
    -4.3072  -4.1759  -4.1484  -4.0612  -4.0547  -4.0320  -4.0196  -3.9209
    -3.8767  -3.8263  -3.7320  -3.7140   5.2664   5.2767   5.7217   5.7422
     5.7879   6.0338   6.0731   6.0915   6.3671   6.5265   6.5506   6.9936
     7.1694   7.2211   7.3254   7.3800   7.4248   7.4463   7.6862   8.0913
     8.4097   8.4768   8.5033   8.7270   8.8499   8.9320   8.9535   9.0722
     9.0781   9.1754   9.3121   9.4072   9.7931   9.8665   9.8862  10.0445
    12.2765  12.4376  12.6868  12.8761  13.8264  13.9082  14.2968  14.4148
    14.5393  14.7676  14.9117  15.0528  15.8904  16.3489  16.4831  16.4908
    16.7386  16.7595  16.8294  17.5982  17.7117

          k = 0.0000 0.3500 0.0000 ( 18495 PWs)   bands (ev):

   -48.9587 -48.9575 -48.9574 -48.9562 -23.2727 -23.2645 -23.2454 -23.2377
   -23.2361 -23.2322 -23.2104 -23.2028 -23.2009 -23.1972 -23.1868 -23.1837
   -22.0791 -22.0629 -22.0600 -22.0510  -6.7113  -6.6202  -6.5633  -5.9805
    -5.9775  -5.9159  -5.8442  -5.8359  -5.7296  -5.5432  -5.5264  -5.5100
    -4.2910  -4.1682  -4.1472  -4.0693  -4.0318  -3.9980  -3.9583  -3.8803
    -3.8560  -3.8451  -3.7467  -3.7434   5.2715   5.2760   5.9087   5.9258
     5.9313   6.0689   6.2235   6.2488   6.3840   6.4126   6.6864   6.8821
     6.9900   7.0831   7.2053   7.2550   7.3661   7.5364   7.6548   7.8259
     8.1428   8.3230   8.4738   8.7540   8.8041   8.8960   9.0128   9.0828
     9.0847   9.3214   9.3224   9.3229   9.6690   9.7789   9.7970   9.9866
    12.4598  12.6394  12.9278  13.1341  13.6541  13.7667  14.2651  14.4206
    14.4608  14.5746  14.8311  14.9582  15.9731  16.4422  16.5470  16.7107
    17.0823  17.0960  17.1297  17.7407  17.7542

          k = 0.0000 0.4000 0.0000 ( 18530 PWs)   bands (ev):

   -48.9585 -48.9577 -48.9572 -48.9564 -23.2711 -23.2656 -23.2404 -23.2322
   -23.2305 -23.2266 -23.2166 -23.2085 -23.2065 -23.2028 -23.1863 -23.1842
   -22.0757 -22.0647 -22.0589 -22.0528  -6.7007  -6.6039  -6.5187  -6.0422
    -5.9576  -5.9357  -5.8647  -5.7862  -5.7573  -5.5646  -5.5642  -5.5499
    -4.2728  -4.1893  -4.1267  -4.0782  -4.0062  -3.9566  -3.9054  -3.8869
    -3.8439  -3.8255  -3.7835  -3.7569   5.2740   5.2756   6.0612   6.0771
     6.1135   6.1395   6.2696   6.3733   6.4663   6.4852   6.7805   6.8038
     6.8583   6.9422   7.0050   7.0503   7.4034   7.5528   7.6205   7.6418
     7.8777   8.1716   8.4617   8.6780   8.7815   8.9504   8.9506   9.1273
     9.2266   9.2386   9.3642   9.4619   9.5419   9.6914   9.6993   9.9147
    12.6541  12.8441  13.1692  13.3780  13.4824  13.6070  14.0887  14.3651
    14.4426  14.5191  14.7454  14.8599  16.0613  16.3826  16.7553  16.9639
    17.3372  17.4608  17.5174  17.5680  17.9093

          k = 0.0000 0.4500 0.0000 ( 18522 PWs)   bands (ev):

   -48.9583 -48.9579 -48.9570 -48.9566 -23.2696 -23.2668 -23.2350 -23.2264
   -23.2246 -23.2229 -23.2207 -23.2144 -23.2125 -23.2087 -23.1858 -23.1847
   -22.0724 -22.0669 -22.0576 -22.0545  -6.6856  -6.6378  -6.4083  -6.1680
    -5.9339  -5.8898  -5.8868  -5.7966  -5.7331  -5.6209  -5.5739  -5.5659
    -4.2532  -4.2109  -4.1114  -4.0880  -3.9784  -3.9181  -3.9120  -3.8634
    -3.8239  -3.8211  -3.8140  -3.7727   5.2751   5.2755   6.0732   6.1624
     6.2620   6.3305   6.3621   6.5183   6.5274   6.6161   6.6895   6.7386
     6.7892   6.8009   6.8258   7.0626   7.2772   7.4125   7.5862   7.6451
     7.7593   8.0257   8.4730   8.5798   8.8127   8.8956   9.0129   9.1581
     9.2034   9.3583   9.4179   9.4265   9.5556   9.5939   9.6394   9.8281
    12.8553  13.0471  13.2605  13.4086  13.4319  13.6579  13.8725  14.1408
    14.5037  14.5899  14.6596  14.7631  16.1497  16.3129  16.9671  17.2392
    17.3783  17.5843  17.8050  17.8340  17.9135

          k = 0.0000 0.5000 0.0000 ( 18550 PWs)   bands (ev):

   -48.9581 -48.9581 -48.9568 -48.9567 -23.2682 -23.2681 -23.2291 -23.2290
   -23.2204 -23.2203 -23.2186 -23.2185 -23.2148 -23.2147 -23.1853 -23.1852
   -22.0695 -22.0695 -22.0562 -22.0562  -6.6649  -6.6649  -6.2907  -6.2907
    -5.9101  -5.9101  -5.8423  -5.8423  -5.6775  -5.6775  -5.5741  -5.5740
    -4.2323  -4.2323  -4.0989  -4.0989  -3.9488  -3.9488  -3.8671  -3.8671
    -3.8342  -3.8342  -3.7910  -3.7910   5.2754   5.2754   6.1082   6.1082
     6.4320   6.4320   6.5420   6.5420   6.5933   6.5933   6.6213   6.6213
     6.6600   6.6600   7.0042   7.0042   7.2798   7.2798   7.5646   7.5646
     7.8877   7.8877   8.5115   8.5116   8.8501   8.8501   9.0824   9.0824
     9.3028   9.3028   9.4804   9.4804   9.4997   9.4997   9.7282   9.7282
    13.0592  13.0593  13.2442  13.2443  13.6439  13.6440  13.9039  13.9040
    14.5778  14.5778  14.6720  14.6720  16.2346  16.2346  17.1765  17.1765
    17.5318  17.5318  17.8119  17.8119  18.0394

          k = 0.0500 0.5000 0.0000 ( 18528 PWs)   bands (ev):

   -48.9581 -48.9581 -48.9568 -48.9567 -23.2681 -23.2680 -23.2330 -23.2329
   -23.2247 -23.2247 -23.2148 -23.2147 -23.2104 -23.2104 -23.1853 -23.1852
   -22.0693 -22.0693 -22.0562 -22.0562  -6.6761  -6.6761  -6.2904  -6.2904
    -5.9196  -5.9196  -5.8216  -5.8215  -5.6798  -5.6798  -5.5784  -5.5784
    -4.2254  -4.2254  -4.0981  -4.0981  -3.9552  -3.9552  -3.8642  -3.8642
    -3.8297  -3.8297  -3.7856  -3.7856   5.2748   5.2748   6.0748   6.0748
     6.3208   6.3208   6.4329   6.4329   6.6106   6.6106   6.6535   6.6535
     6.7819   6.7819   7.0542   7.0542   7.3239   7.3239   7.5732   7.5732
     7.8842   7.8842   8.5023   8.5023   8.8572   8.8572   9.0908   9.0908
     9.2890   9.2890   9.4214   9.4214   9.4873   9.4873   9.7658   9.7658
    12.9472  12.9472  13.3530  13.3530  13.6630  13.6630  13.9175  13.9175
    14.5588  14.5588  14.6945  14.6945  16.2219  16.2219  17.1849  17.1849
    17.5210  17.5210  17.8182  17.8183  17.9389

          k = 0.1000 0.5000 0.0000 ( 18512 PWs)   bands (ev):

   -48.9581 -48.9581 -48.9568 -48.9567 -23.2679 -23.2679 -23.2395 -23.2395
   -23.2309 -23.2309 -23.2085 -23.2085 -23.2042 -23.2042 -23.1853 -23.1852
   -22.0688 -22.0688 -22.0564 -22.0564  -6.7068  -6.7068  -6.2896  -6.2896
    -5.9353  -5.9353  -5.7764  -5.7764  -5.6864  -5.6864  -5.5892  -5.5892
    -4.2058  -4.2058  -4.0960  -4.0960  -3.9707  -3.9707  -3.8555  -3.8555
    -3.8199  -3.8199  -3.7692  -3.7692   5.2729   5.2730   5.9935   5.9935
     6.1481   6.1481   6.2316   6.2316   6.6934   6.6934   6.7222   6.7222
     6.8785   6.8785   7.1746   7.1746   7.4282   7.4282   7.6154   7.6154
     7.8742   7.8742   8.4741   8.4741   8.8804   8.8804   9.1150   9.1151
     9.2494   9.2494   9.3165   9.3165   9.4206   9.4206   9.8398   9.8398
    12.7759  12.7759  13.5143  13.5143  13.7170  13.7170  13.9565  13.9565
    14.5233  14.5233  14.7399  14.7399  16.1829  16.1830  17.2090  17.2090
    17.4964  17.4964  17.7613  17.7613  17.8352

          k = 0.1500 0.5000 0.0000 ( 18510 PWs)   bands (ev):

   -48.9581 -48.9581 -48.9568 -48.9567 -23.2677 -23.2676 -23.2463 -23.2463
   -23.2369 -23.2369 -23.2022 -23.2022 -23.1982 -23.1982 -23.1853 -23.1852
   -22.0681 -22.0681 -22.0568 -22.0568  -6.7505  -6.7504  -6.2884  -6.2884
    -5.9499  -5.9499  -5.7277  -5.7277  -5.6966  -5.6966  -5.5971  -5.5971
    -4.1770  -4.1770  -4.0930  -4.0930  -3.9901  -3.9901  -3.8418  -3.8418
    -3.8083  -3.8083  -3.7443  -3.7443   5.2696   5.2696   5.8915   5.8915
     5.9699   5.9699   6.0345   6.0345   6.7739   6.7739   6.8080   6.8080
     6.9395   6.9395   7.3154   7.3154   7.5024   7.5024   7.7443   7.7443
     7.8593   7.8593   8.4277   8.4278   8.9225   8.9225   9.1488   9.1488
     9.1922   9.1922   9.1968   9.1968   9.3147   9.3147   9.9151   9.9151
    12.6020  12.6020  13.6714  13.6714  13.7979  13.7980  14.0166  14.0166
    14.4861  14.4861  14.7917  14.7917  16.1171  16.1172  17.2451  17.2451
    17.4726  17.4726  17.5644  17.5644  17.8607

          k = 0.2000 0.5000 0.0000 ( 18506 PWs)   bands (ev):

   -48.9581 -48.9580 -48.9568 -48.9567 -23.2674 -23.2674 -23.2527 -23.2527
   -23.2425 -23.2425 -23.1963 -23.1963 -23.1927 -23.1927 -23.1852 -23.1851
   -22.0671 -22.0671 -22.0572 -22.0572  -6.7999  -6.7999  -6.2868  -6.2868
    -5.9634  -5.9634  -5.7092  -5.7092  -5.7042  -5.7042  -5.5778  -5.5778
    -4.1439  -4.1439  -4.0899  -4.0899  -4.0104  -4.0103  -3.8241  -3.8241
    -3.7943  -3.7943  -3.7153  -3.7153   5.2643   5.2644   5.7827   5.7827
     5.8028   5.8028   5.8525   5.8526   6.8607   6.8607   6.9006   6.9007
     6.9860   6.9860   7.4458   7.4458   7.5333   7.5333   7.8360   7.8360
     7.9421   7.9421   8.3665   8.3665   8.9786   8.9786   9.0664   9.0664
     9.1033   9.1033   9.1967   9.1967   9.2090   9.2090   9.9814   9.9814
    12.4344  12.4344  13.8154  13.8154  13.8944  13.8945  14.0913  14.0914
    14.4508  14.4508  14.8437  14.8437  16.0279  16.0280  17.2877  17.2877
    17.3609  17.3609  17.4604  17.4604  17.8924

          k = 0.2500 0.5000 0.0000 ( 18562 PWs)   bands (ev):

   -48.9581 -48.9580 -48.9568 -48.9567 -23.2672 -23.2671 -23.2584 -23.2584
   -23.2475 -23.2475 -23.1911 -23.1911 -23.1879 -23.1879 -23.1849 -23.1848
   -22.0661 -22.0661 -22.0576 -22.0576  -6.8493  -6.8493  -6.2850  -6.2850
    -5.9760  -5.9759  -5.7228  -5.7228  -5.7147  -5.7147  -5.5253  -5.5253
    -4.1114  -4.1114  -4.0870  -4.0870  -4.0298  -4.0298  -3.8042  -3.8042
    -3.7771  -3.7771  -3.6856  -3.6856   5.2562   5.2562   5.6440   5.6440
     5.6866   5.6866   5.6933   5.6933   6.9568   6.9568   6.9943   6.9943
     7.0280   7.0280   7.5520   7.5520   7.5536   7.5536   7.8143   7.8143
     8.1450   8.1450   8.2956   8.2956   8.9158   8.9158   8.9952   8.9952
     9.0170   9.0170   9.1452   9.1452   9.2644   9.2644  10.0361  10.0361
    12.2784  12.2784  13.9417  13.9417  13.9943  13.9943  14.1729  14.1730
    14.4195  14.4195  14.8914  14.8914  15.9244  15.9244  17.1613  17.1613
    17.3305  17.3305  17.4633  17.4633  17.9255

          k = 0.3000 0.5000 0.0000 ( 18510 PWs)   bands (ev):

   -48.9581 -48.9580 -48.9568 -48.9567 -23.2673 -23.2673 -23.2630 -23.2630
   -23.2518 -23.2517 -23.1867 -23.1866 -23.1858 -23.1857 -23.1828 -23.1828
   -22.0651 -22.0651 -22.0581 -22.0581  -6.8944  -6.8943  -6.2832  -6.2832
    -5.9873  -5.9873  -5.7365  -5.7365  -5.7362  -5.7362  -5.4646  -5.4646
    -4.0846  -4.0846  -4.0836  -4.0836  -4.0474  -4.0474  -3.7839  -3.7839
    -3.7572  -3.7572  -3.6580  -3.6580   5.2435   5.2435   5.5130   5.5130
     5.5632   5.5632   5.5953   5.5953   7.0435   7.0435   7.0680   7.0680
     7.1036   7.1036   7.5722   7.5722   7.6300   7.6300   7.7904   7.7904
     8.2194   8.2194   8.3348   8.3348   8.7472   8.7472   8.9254   8.9254
     8.9288   8.9288   9.2144   9.2144   9.3228   9.3228  10.0788  10.0788
    12.1391  12.1391  14.0473  14.0473  14.0855  14.0855  14.2532  14.2532
    14.3948  14.3948  14.9303  14.9303  15.8198  15.8198  16.9773  16.9773
    17.3688  17.3688  17.4785  17.4785  17.9551

          k = 0.3500 0.5000 0.0000 ( 18498 PWs)   bands (ev):

   -48.9581 -48.9580 -48.9568 -48.9567 -23.2690 -23.2690 -23.2651 -23.2651
   -23.2552 -23.2552 -23.1855 -23.1854 -23.1831 -23.1831 -23.1796 -23.1796
   -22.0641 -22.0641 -22.0585 -22.0585  -6.9320  -6.9320  -6.2816  -6.2816
    -5.9969  -5.9969  -5.7582  -5.7582  -5.7480  -5.7480  -5.4095  -5.4095
    -4.0829  -4.0829  -4.0683  -4.0683  -4.0564  -4.0564  -3.7655  -3.7655
    -3.7366  -3.7366  -3.6345  -3.6345   5.2241   5.2241   5.4069   5.4070
     5.4677   5.4677   5.5196   5.5196   7.1049   7.1049   7.1084   7.1084
     7.2367   7.2368   7.5905   7.5905   7.6816   7.6816   7.7665   7.7665
     8.1375   8.1375   8.4969   8.4969   8.5792   8.5792   8.8477   8.8477
     8.8542   8.8542   9.3071   9.3071   9.3777   9.3777  10.1102  10.1102
    12.0220  12.0220  14.1304  14.1304  14.1570  14.1571  14.3242  14.3243
    14.3803  14.3804  14.9573  14.9573  15.7277  15.7277  16.8202  16.8203
    17.4007  17.4007  17.4994  17.4994  17.9780

          k = 0.4000 0.5000 0.0000 ( 18490 PWs)   bands (ev):

   -48.9581 -48.9580 -48.9568 -48.9567 -23.2716 -23.2716 -23.2654 -23.2653
   -23.2577 -23.2577 -23.1855 -23.1854 -23.1805 -23.1805 -23.1771 -23.1771
   -22.0634 -22.0634 -22.0588 -22.0588  -6.9602  -6.9602  -6.2803  -6.2803
    -6.0043  -6.0043  -5.7757  -5.7757  -5.7572  -5.7572  -5.3663  -5.3663
    -4.0817  -4.0817  -4.0771  -4.0771  -4.0447  -4.0447  -3.7508  -3.7508
    -3.7184  -3.7184  -3.6166  -3.6166   5.1991   5.1991   5.3292   5.3292
     5.4088   5.4088   5.4629   5.4629   7.1354   7.1354   7.1547   7.1547
     7.3842   7.3842   7.6080   7.6080   7.7120   7.7120   7.7446   7.7446
     8.0418   8.0418   8.4381   8.4381   8.6209   8.6209   8.7821   8.7821
     8.8009   8.8009   9.3890   9.3890   9.4229   9.4229  10.1313  10.1313
    11.9327  11.9327  14.1900  14.1900  14.2014  14.2014  14.3788  14.3788
    14.3795  14.3796  14.9719  14.9719  15.6586  15.6586  16.7002  16.7002
    17.4254  17.4254  17.5189  17.5189  17.9933

          k = 0.4500 0.5000 0.0000 ( 18536 PWs)   bands (ev):

   -48.9581 -48.9580 -48.9568 -48.9567 -23.2733 -23.2733 -23.2653 -23.2653
   -23.2593 -23.2592 -23.1854 -23.1854 -23.1790 -23.1790 -23.1756 -23.1756
   -22.0629 -22.0629 -22.0590 -22.0590  -6.9776  -6.9776  -6.2795  -6.2795
    -6.0089  -6.0089  -5.7869  -5.7868  -5.7631  -5.7631  -5.3388  -5.3388
    -4.0846  -4.0846  -4.0810  -4.0810  -4.0364  -4.0364  -3.7413  -3.7413
    -3.7058  -3.7058  -3.6055  -3.6055   5.1769   5.1769   5.2817   5.2817
     5.3797   5.3797   5.4278   5.4278   7.1559   7.1559   7.1829   7.1829
     7.5332   7.5332   7.6222   7.6222   7.7268   7.7268   7.7276   7.7277
     7.9259   7.9259   8.3495   8.3495   8.6986   8.6986   8.7394   8.7394
     8.7684   8.7684   9.4445   9.4445   9.4529   9.4529  10.1434  10.1434
    11.8764  11.8764  14.2208  14.2208  14.2257  14.2257  14.3854  14.3854
    14.4145  14.4145  14.9772  14.9772  15.6174  15.6174  16.6249  16.6249
    17.4415  17.4415  17.5322  17.5322  18.0016

          k = 0.5000 0.5000 0.0000 ( 18544 PWs)   bands (ev):

   -48.9581 -48.9580 -48.9568 -48.9567 -23.2739 -23.2739 -23.2653 -23.2652
   -23.2598 -23.2598 -23.1854 -23.1854 -23.1785 -23.1785 -23.1751 -23.1751
   -22.0627 -22.0627 -22.0591 -22.0591  -6.9835  -6.9835  -6.2792  -6.2792
    -6.0105  -6.0105  -5.7907  -5.7907  -5.7651  -5.7651  -5.3293  -5.3293
    -4.0872  -4.0872  -4.0808  -4.0808  -4.0336  -4.0336  -3.7380  -3.7380
    -3.7014  -3.7014  -3.6018  -3.6018   5.1681   5.1681   5.2658   5.2658
     5.3713   5.3713   5.4159   5.4159   7.1631   7.1631   7.1923   7.1923
     7.6245   7.6245   7.6282   7.6282   7.7208   7.7208   7.7300   7.7300
     7.8456   7.8456   8.3209   8.3209   8.7215   8.7215   8.7281   8.7281
     8.7574   8.7575   9.4634   9.4634   9.4641   9.4641  10.1473  10.1473
    11.8572  11.8572  14.2255  14.2255  14.2376  14.2376  14.3893  14.3893
    14.4265  14.4265  14.9782  14.9782  15.6039  15.6039  16.5992  16.5993
    17.4471  17.4471  17.5368  17.5368  18.0042

          k = 0.4500 0.4500 0.0000 ( 18524 PWs)   bands (ev):

   -48.9581 -48.9580 -48.9568 -48.9567 -23.2736 -23.2718 -23.2656 -23.2651
   -23.2597 -23.2578 -23.1855 -23.1853 -23.1805 -23.1785 -23.1770 -23.1751
   -22.0635 -22.0626 -22.0592 -22.0587  -6.9751  -6.9680  -6.3006  -6.2582
    -6.0127  -6.0031  -5.7833  -5.7814  -5.7659  -5.7572  -5.3536  -5.3438
    -4.0883  -4.0819  -4.0798  -4.0749  -4.0416  -4.0349  -3.7498  -3.7396
    -3.7132  -3.7094  -3.6124  -3.6063   5.1685   5.1986   5.2652   5.3300
     5.3727   5.4076   5.4360   5.4439   7.1215   7.1488   7.1773   7.1968
     7.3750   7.6169   7.6192   7.6194   7.6991   7.7098   7.7565   7.7621
     7.8703   8.0223   8.3411   8.4096   8.6166   8.7215   8.7323   8.7494
     8.7817   8.8108   9.3849   9.4197   9.4663   9.4675  10.1298  10.1482
    11.8523  11.9376  14.1993  14.2009  14.2156  14.2277  14.3746  14.3928
    14.3932  14.4246  14.9688  14.9823  15.6054  15.6567  16.5959  16.7021
    17.3953  17.4768  17.4861  17.5714  17.9554

          k = 0.4000 0.4000 0.0000 ( 18494 PWs)   bands (ev):

   -48.9582 -48.9580 -48.9569 -48.9567 -23.2727 -23.2669 -23.2665 -23.2634
   -23.2594 -23.2521 -23.1863 -23.1860 -23.1851 -23.1826 -23.1788 -23.1754
   -22.0657 -22.0624 -22.0594 -22.0576  -6.9508  -6.9228  -6.3598  -6.1967
    -6.0189  -5.9815  -5.7718  -5.7625  -5.7539  -5.7339  -5.4214  -5.3843
    -4.0916  -4.0851  -4.0771  -4.0644  -4.0410  -4.0384  -3.7844  -3.7480
    -3.7423  -3.7329  -3.6436  -3.6192   5.1697   5.2413   5.2634   5.3764
     5.4944   5.5166   5.5274   5.5591   7.0072   7.0140   7.0370   7.2185
     7.2451   7.5846   7.5930   7.6118   7.6177   7.6770   7.8431   7.8444
     7.9444   8.1515   8.3184   8.3958   8.5949   8.7156   8.7525   8.7872
     8.9314   8.9546   9.1923   9.3090   9.4754   9.4779  10.0740  10.1505
    11.8384  12.1569  14.0592  14.0642  14.1052  14.2348  14.3420  14.3920
    14.4055  14.4535  14.9120  14.9957  15.6099  15.8172  16.5837  16.9703
    17.2481  17.3455  17.5558  17.6813  17.8050

          k = 0.3500 0.3500 0.0000 ( 18530 PWs)   bands (ev):

   -48.9584 -48.9578 -48.9571 -48.9565 -23.2715 -23.2677 -23.2651 -23.2589
   -23.2548 -23.2433 -23.1953 -23.1920 -23.1858 -23.1847 -23.1792 -23.1757
   -22.0692 -22.0619 -22.0599 -22.0558  -6.9132  -6.8517  -6.4459  -6.0989
    -6.0280  -5.9483  -5.7891  -5.7350  -5.7099  -5.6960  -5.5165  -5.4435
    -4.1004  -4.0963  -4.0907  -4.0727  -4.0442  -3.9913  -3.8395  -3.8034
    -3.7697  -3.7411  -3.6934  -3.6389   5.1715   5.2600   5.2606   5.3819
     5.5856   5.6647   5.8078   5.8443   6.6723   6.8737   6.8924   7.2819
     7.2871   7.3802   7.5358   7.6104   7.6232   7.6287   7.8939   7.9654
     7.9681   8.0674   8.2418   8.4764   8.5774   8.7093   8.7900   8.9818
     9.0564   9.1364   9.1537   9.1718   9.4913   9.4950   9.9732  10.1539
    11.8170  12.4692  13.8095  13.8114  13.8727  14.2469  14.3237  14.4326
    14.4644  14.5287  14.7972  15.0184  15.6177  16.0385  16.5556  17.0293
    17.1376  17.2701  17.5549  17.6687  17.8698

          k = 0.3000 0.3000 0.0000 ( 18515 PWs)   bands (ev):

   -48.9585 -48.9576 -48.9572 -48.9563 -23.2712 -23.2680 -23.2643 -23.2584
   -23.2424 -23.2320 -23.2067 -23.2032 -23.1864 -23.1843 -23.1796 -23.1761
   -22.0736 -22.0614 -22.0604 -22.0536  -6.8668  -6.7604  -6.5473  -6.0391
    -5.9721  -5.9075  -5.8201  -5.7363  -5.6520  -5.6447  -5.5893  -5.5130
    -4.1435  -4.1046  -4.0992  -4.0671  -4.0510  -3.9340  -3.9104  -3.8753
    -3.8169  -3.7583  -3.7318  -3.6621   5.1738   5.2571   5.2678   5.3876
     5.7007   5.8532   6.1750   6.2218   6.3603   6.7267   6.7426   7.0481
     7.3463   7.3560   7.3632   7.4809   7.5513   7.6509   7.6608   8.1204
     8.1252   8.2398   8.3330   8.4896   8.5772   8.7112   8.8421   8.8478
     9.0409   9.3513   9.3637   9.3746   9.5139   9.5186   9.8210  10.1578
    11.7906  12.8310  13.4807  13.4819  13.5582  14.2595  14.3202  14.4872
    14.5730  14.6403  14.6576  15.0487  15.6286  16.2442  16.5003  16.7713
    16.8861  17.2286  17.4099  17.8065  18.1247

          k = 0.2500 0.2500 0.0000 ( 18537 PWs)   bands (ev):

   -48.9587 -48.9574 -48.9574 -48.9561 -23.2728 -23.2665 -23.2636 -23.2578
   -23.2284 -23.2196 -23.2192 -23.2155 -23.1870 -23.1838 -23.1801 -23.1766
   -22.0785 -22.0610 -22.0608 -22.0511  -6.8181  -6.6562  -6.6541  -6.0510
    -5.8651  -5.8617  -5.8266  -5.8213  -5.5855  -5.5831  -5.5825  -5.5695
    -4.1909  -4.1162  -4.1145  -4.0605  -4.0581  -3.9882  -3.9570  -3.8767
    -3.8703  -3.8333  -3.7137  -3.6844   5.1763   5.2529   5.2721   5.3912
     5.8288   6.0835   6.0891   6.5542   6.5888   6.6289   6.6385   6.6437
     6.8612   7.3784   7.4135   7.4675   7.4800   7.6788   7.6801   8.3044
     8.3115   8.3912   8.4279   8.4636   8.6917   8.7349   8.7668   8.9296
     8.9345   9.5417   9.5473   9.5908   9.5939   9.6125   9.6146  10.1616
    11.7622  13.1044  13.1072  13.1978  13.2070  14.2657  14.3213  14.5170
    14.5910  14.7059  14.7796  15.0839  15.6423  16.3950  16.4023  16.5041
    16.6160  16.8674  17.3889  17.6541  17.9584

          k = 0.2000 0.2000 0.0000 ( 18531 PWs)   bands (ev):

   -48.9589 -48.9576 -48.9572 -48.9559 -23.2748 -23.2645 -23.2630 -23.2572
   -23.2317 -23.2278 -23.2143 -23.2071 -23.1875 -23.1833 -23.1806 -23.1770
   -22.0835 -22.0616 -22.0602 -22.0487  -6.7755  -6.7570  -6.5476  -6.0628
    -5.9228  -5.9076  -5.8279  -5.6754  -5.6516  -5.5126  -5.5113  -5.5107
    -4.2377  -4.1524  -4.1385  -4.0649  -4.0534  -4.0504  -4.0348  -3.9286
    -3.9117  -3.8221  -3.7011  -3.6894   5.1787   5.2476   5.2751   5.3881
     5.8488   5.9574   6.2148   6.3689   6.3882   6.4700   6.4744   6.9846
     7.0520   7.3238   7.3814   7.4823   7.5548   7.7071   7.7115   8.2957
     8.5091   8.5181   8.5190   8.7334   8.7392   8.7896   8.8120   8.8729
     9.0376   9.3553   9.5771   9.5832   9.7906   9.7969   9.8240  10.1643
    11.7346  12.7117  12.7145  12.8216  13.5670  14.2628  14.3238  14.4206
    14.7186  14.8485  14.9377  15.1239  15.6578  16.2458  16.2516  16.3536
    16.4907  16.5107  17.0966  17.3101  17.8855

          k = 0.1500 0.1500 0.0000 ( 18527 PWs)   bands (ev):

   -48.9591 -48.9578 -48.9571 -48.9558 -23.2766 -23.2628 -23.2624 -23.2568
   -23.2428 -23.2388 -23.2015 -23.1960 -23.1880 -23.1827 -23.1810 -23.1773
   -22.0881 -22.0622 -22.0596 -22.0465  -6.8474  -6.7471  -6.4436  -6.0739
    -6.0010  -5.9509  -5.8024  -5.7083  -5.5340  -5.4444  -5.4409  -5.4401
    -4.2797  -4.2239  -4.1893  -4.0823  -4.0776  -4.0708  -4.0466  -3.9856
    -3.9839  -3.7778  -3.7086  -3.6634   5.1810   5.2394   5.2774   5.3678
     5.6612   5.8374   5.9988   6.0740   6.3729   6.3772   6.6828   7.2667
     7.2967   7.3262   7.3876   7.5457   7.6271   7.7347   7.7408   8.2072
     8.5939   8.7181   8.7192   8.7296   8.7789   8.9216   8.9756   9.0627
     9.0633   9.1672   9.6185   9.6246   9.9528   9.9701   9.9805  10.1652
    11.7106  12.3328  12.3341  12.4603  13.8817  14.2505  14.3262  14.3611
    14.8683  14.9739  15.1020  15.1750  15.6734  16.0284  16.0316  16.1228
    16.1840  16.5457  16.5854  17.2239  17.5753

          k = 0.1000 0.1000 0.0000 ( 18547 PWs)   bands (ev):

   -48.9593 -48.9580 -48.9569 -48.9556 -23.2781 -23.2619 -23.2616 -23.2567
   -23.2513 -23.2472 -23.1915 -23.1884 -23.1876 -23.1820 -23.1811 -23.1774
   -22.0917 -22.0626 -22.0592 -22.0447  -6.9180  -6.7353  -6.3546  -6.0835
    -6.0466  -5.9858  -5.7931  -5.7491  -5.4199  -5.3828  -5.3809  -5.3718
    -4.3146  -4.3003  -4.2550  -4.1018  -4.0877  -4.0757  -4.0456  -4.0411
    -4.0308  -3.7470  -3.7062  -3.6408   5.1827   5.2223   5.2792   5.3096
     5.5239   5.5504   5.7410   6.1670   6.3023   6.3057   7.0246   7.2214
     7.2366   7.5802   7.5938   7.5969   7.6826   7.7573   7.7644   8.1242
     8.5811   8.7043   8.7473   8.8275   8.9086   8.9201   9.0167   9.1820
     9.3023   9.3875   9.6668   9.6723  10.0693  10.0857  10.0982  10.1642
    11.6919  12.0020  12.0032  12.1490  14.1228  14.2345  14.3291  14.3350
    15.0087  15.0485  15.2359  15.2539  15.6836  15.7843  15.8580  15.8857
    15.9590  16.1989  16.5747  17.1510  17.3258

          k = 0.0500 0.0500 0.0000 ( 18577 PWs)   bands (ev):

   -48.9594 -48.9581 -48.9568 -48.9555 -23.2791 -23.2616 -23.2616 -23.2573
   -23.2561 -23.2519 -23.1887 -23.1858 -23.1839 -23.1804 -23.1804 -23.1768
   -22.0941 -22.0629 -22.0589 -22.0436  -6.9629  -6.7346  -6.2925  -6.0906
    -6.0657  -6.0082  -5.7998  -5.7678  -5.3499  -5.3401  -5.3380  -5.3168
    -4.3570  -4.3419  -4.3014  -4.1145  -4.0920  -4.0812  -4.0807  -4.0612
    -4.0374  -3.7312  -3.6980  -3.6254   5.1835   5.1851   5.2223   5.2803
     5.3919   5.4419   5.6293   6.2269   6.2595   6.2622   7.1919   7.1967
     7.3775   7.6303   7.6944   7.7186   7.7332   7.7719   7.7799   8.0130
     8.3653   8.7221   8.7286   8.7813   9.0384   9.0543   9.0847   9.3743
     9.4117   9.6426   9.7154   9.7205  10.1321  10.1455  10.1644  10.1745
    11.6784  11.7670  11.7693  11.9306  14.2237  14.2601  14.3259  14.3411
    15.0735  15.1092  15.2505  15.3669  15.5876  15.6466  15.7267  15.7605
    15.8517  15.9884  16.5880  17.0985  17.1613

          k = 0.0000 0.0000 0.0000 ( 18577 PWs)   bands (ev):

   -48.9594 -48.9581 -48.9568 -48.9555 -23.2794 -23.2622 -23.2615 -23.2581
   -23.2571 -23.2530 -23.1887 -23.1844 -23.1834 -23.1797 -23.1796 -23.1761
   -22.0949 -22.0630 -22.0588 -22.0432  -6.9783  -6.7357  -6.2698  -6.0932
    -6.0703  -6.0159  -5.8058  -5.7720  -5.3276  -5.3256  -5.3213  -5.2944
    -4.3782  -4.3544  -4.3158  -4.1216  -4.0932  -4.0907  -4.0848  -4.0698
    -4.0361  -3.7266  -3.6937  -3.6200   5.1576   5.1770   5.1871   5.2807
     5.3525   5.4140   5.6031   6.2451   6.2473   6.2480   7.1809   7.1839
     7.6404   7.6433   7.7188   7.7351   7.7770   7.7802   7.7890   7.8409
     8.2646   8.7226   8.7305   8.7802   9.0784   9.1023   9.1155   9.4479
     9.4598   9.7353   9.7385   9.7500  10.1439  10.1648  10.1703  10.1989
    11.6609  11.6828  11.6927  11.8506  14.2202  14.2896  14.3238  14.3603
    15.0740  15.1457  15.2300  15.4098  15.5123  15.6113  15.6965  15.7456
    15.8165  15.9248  16.5918  17.0690  17.1033

          k = 0.0000 0.0000 0.0354 ( 18581 PWs)   bands (ev):

   -48.9594 -48.9581 -48.9568 -48.9555 -23.2789 -23.2621 -23.2610 -23.2581
   -23.2571 -23.2530 -23.1893 -23.1844 -23.1837 -23.1799 -23.1795 -23.1761
   -22.0947 -22.0632 -22.0587 -22.0433  -6.9763  -6.7355  -6.2646  -6.0918
    -6.0700  -6.0164  -5.8043  -5.7697  -5.3317  -5.3314  -5.3279  -5.2990
    -4.3762  -4.3488  -4.3104  -4.1214  -4.0906  -4.0898  -4.0850  -4.0700
    -4.0384  -3.7296  -3.6968  -3.6225   5.1578   5.1768   5.1973   5.2966
     5.3529   5.4191   5.6099   6.2399   6.2509   6.2516   7.1696   7.1729
     7.6359   7.6403   7.7301   7.7451   7.7643   7.7790   7.7877   7.8472
     8.2705   8.6956   8.7447   8.7931   9.0670   9.0964   9.1033   9.4485
     9.4607   9.7127   9.7290   9.7437  10.1385  10.1641  10.1652  10.2000
    11.6837  11.6837  11.7149  11.8495  14.2077  14.2939  14.3088  14.3647
    15.0858  15.1471  15.2229  15.4082  15.5124  15.6071  15.7075  15.7513
    15.8269  15.9380  16.6172  17.0854  17.1073

          k = 0.0000 0.0000 0.0707 ( 18581 PWs)   bands (ev):

   -48.9594 -48.9581 -48.9568 -48.9555 -23.2773 -23.2621 -23.2596 -23.2582
   -23.2570 -23.2531 -23.1910 -23.1848 -23.1844 -23.1803 -23.1795 -23.1762
   -22.0941 -22.0637 -22.0584 -22.0436  -6.9702  -6.7349  -6.2492  -6.0872
    -6.0692  -6.0178  -5.7999  -5.7630  -5.3486  -5.3475  -5.3438  -5.3126
    -4.3702  -4.3323  -4.2946  -4.1207  -4.0906  -4.0857  -4.0797  -4.0705
    -4.0450  -3.7387  -3.7060  -3.6301   5.1581   5.1765   5.2255   5.3441
     5.3540   5.4342   5.6322   6.2246   6.2617   6.2624   7.1373   7.1413
     7.6272   7.6345   7.7261   7.7588   7.7717   7.7754   7.7839   7.8658
     8.2876   8.6165   8.7861   8.8305   9.0333   9.0672   9.0787   9.4503
     9.4634   9.6386   9.7117   9.7265  10.1220  10.1455  10.1664  10.2025
    11.6863  11.7501  11.7797  11.8460  14.1700  14.2644  14.3065  14.3777
    15.1128  15.1512  15.2015  15.4035  15.5124  15.5959  15.7415  15.7720
    15.8578  15.9796  16.6911  17.1192  17.1333

          k = 0.0000 0.0000 0.1061 ( 18573 PWs)   bands (ev):

   -48.9593 -48.9582 -48.9567 -48.9556 -23.2746 -23.2619 -23.2583 -23.2572
   -23.2569 -23.2532 -23.1938 -23.1869 -23.1843 -23.1807 -23.1794 -23.1763
   -22.0931 -22.0647 -22.0579 -22.0440  -6.9603  -6.7349  -6.2236  -6.0787
    -6.0679  -6.0201  -5.7928  -5.7520  -5.3795  -5.3762  -5.3629  -5.3340
    -4.3605  -4.3062  -4.2695  -4.1196  -4.0904  -4.0868  -4.0714  -4.0633
    -4.0558  -3.7537  -3.7211  -3.6425   5.1587   5.1759   5.2643   5.3557
     5.4219   5.4590   5.6764   6.1995   6.2797   6.2804   7.0879   7.0927
     7.6198   7.6302   7.6625   7.7695   7.7776   7.7991   7.8106   7.8968
     8.3141   8.4899   8.8506   8.8900   8.9787   9.0093   9.0500   9.4537
     9.4680   9.5249   9.6875   9.7029  10.0932  10.1145  10.1683  10.2052
    11.6906  11.8404  11.8542  11.8818  14.1069  14.1918  14.3276  14.3992
    15.1347  15.1582  15.1657  15.3956  15.5125  15.5811  15.7974  15.8191
    15.9085  16.0554  16.8071  17.1386  17.2096

          k = 0.0000 0.0000 0.1414 ( 18565 PWs)   bands (ev):

   -48.9593 -48.9582 -48.9567 -48.9556 -23.2710 -23.2617 -23.2585 -23.2567
   -23.2540 -23.2534 -23.1976 -23.1900 -23.1841 -23.1810 -23.1792 -23.1764
   -22.0918 -22.0659 -22.0573 -22.0447  -6.9467  -6.7364  -6.1885  -6.0661
    -6.0650  -6.0231  -5.7836  -5.7369  -5.4227  -5.4124  -5.3874  -5.3615
    -4.3472  -4.2722  -4.2365  -4.1181  -4.0900  -4.0884  -4.0731  -4.0700
    -4.0411  -3.7744  -3.7420  -3.6597   5.1595   5.1751   5.3033   5.3580
     5.4929   5.5282   5.7516   6.1652   6.3048   6.3055   7.0260   7.0316
     7.5734   7.6151   7.6291   7.7615   7.7690   7.8488   7.8594   7.9401
     8.3231   8.3484   8.9061   8.9329   8.9333   8.9676   9.0115   9.3827
     9.4589   9.4743   9.6607   9.6771  10.0518  10.0715  10.1710  10.2072
    11.6966  11.8327  11.9887  12.0144  14.0188  14.0930  14.3569  14.4291
    15.1164  15.1324  15.1682  15.3848  15.5128  15.5659  15.8635  15.9103
    15.9780  16.1724  16.9531  17.1651  17.3102

          k = 0.0000 0.0000 0.1768 ( 18561 PWs)   bands (ev):

   -48.9592 -48.9583 -48.9566 -48.9557 -23.2666 -23.2614 -23.2587 -23.2565
   -23.2536 -23.2500 -23.2023 -23.1940 -23.1839 -23.1813 -23.1791 -23.1766
   -22.0901 -22.0675 -22.0565 -22.0455  -6.9299  -6.7407  -6.1445  -6.0638
    -6.0448  -6.0265  -5.7736  -5.7179  -5.4757  -5.4547  -5.4158  -5.3936
    -4.3305  -4.2321  -4.1974  -4.1163  -4.0902  -4.0895  -4.0889  -4.0739
    -4.0141  -3.8005  -3.7682  -3.6812   5.1605   5.1741   5.3340   5.3608
     5.5351   5.6606   5.8639   6.1226   6.3369   6.3374   6.9563   6.9627
     7.4592   7.6117   7.6318   7.7516   7.7583   7.9070   7.9173   7.9957
     8.1258   8.3893   8.8195   8.8425   8.9647   9.0293   9.0591   9.2236
     9.4659   9.4823   9.6341   9.6516   9.9979  10.0165  10.1742  10.2080
    11.7042  11.8233  12.1463  12.1706  13.9070  13.9707  14.3942  14.4672
    15.0557  15.1016  15.1810  15.3714  15.5131  15.5527  15.9433  16.0332
    16.0646  16.3353  17.1107  17.1978  17.2044

          k = 0.0000 0.0000 0.2121 ( 18541 PWs)   bands (ev):

   -48.9591 -48.9584 -48.9565 -48.9558 -23.2622 -23.2603 -23.2589 -23.2563
   -23.2539 -23.2453 -23.2078 -23.1987 -23.1837 -23.1816 -23.1788 -23.1768
   -22.0881 -22.0694 -22.0556 -22.0464  -6.9103  -6.7487  -6.0923  -6.0611
    -6.0304  -6.0172  -5.7652  -5.6953  -5.5369  -5.4989  -5.4465  -5.4287
    -4.3108  -4.1877  -4.1539  -4.1141  -4.1100  -4.0924  -4.0887  -4.0756
    -3.9831  -3.8316  -3.7995  -3.7069   5.1617   5.1730   5.3543   5.3638
     5.5845   5.8156   6.0128   6.0730   6.3758   6.3761   6.8824   6.8896
     7.3211   7.6036   7.6379   7.7401   7.7459   7.9104   7.9752   7.9839
     8.0635   8.4359   8.7232   8.7429   8.9113   9.0580   9.1339   9.1601
     9.4748   9.4921   9.6091   9.6276   9.9322   9.9503  10.1780  10.2074
    11.7133  11.8124  12.3207  12.3443  13.7737  13.8277  14.4393  14.5131
    14.9867  15.0492  15.1964  15.3554  15.5137  15.5420  16.0379  16.1664
    16.1742  16.5411  17.0802  17.1975  17.2357

          k = 0.0000 0.0000 0.2475 ( 18554 PWs)   bands (ev):

   -48.9590 -48.9584 -48.9564 -48.9558 -23.2612 -23.2592 -23.2560 -23.2550
   -23.2541 -23.2400 -23.2140 -23.2040 -23.1835 -23.1818 -23.1786 -23.1770
   -22.0859 -22.0715 -22.0545 -22.0475  -6.8886  -6.7608  -6.0580  -6.0344
    -6.0329  -5.9822  -5.7630  -5.6693  -5.6043  -5.5384  -5.4778  -5.4654
    -4.2886  -4.1406  -4.1336  -4.1116  -4.1074  -4.0949  -4.0876  -4.0774
    -3.9491  -3.8673  -3.8353  -3.7361   5.1629   5.1717   5.3661   5.3670
     5.6399   5.9894   6.0168   6.1941   6.4209   6.4213   6.8073   6.8154
     7.1613   7.5486   7.6471   7.7275   7.7307   7.7321   8.0490   8.0586
     8.1437   8.4875   8.6213   8.6384   8.8529   8.8941   9.2435   9.2669
     9.4855   9.5035   9.5860   9.6052   9.8556   9.8735  10.1821  10.2056
    11.7237  11.8004  12.5063  12.5299  13.6216  13.6674  14.4916  14.5664
    14.9125  14.9835  15.2142  15.3375  15.5145  15.5338  16.1456  16.2809
    16.3283  16.7790  16.9467  17.0765  17.2771

          k = 0.0000 0.0000 0.2828 ( 18514 PWs)   bands (ev):

   -48.9590 -48.9585 -48.9564 -48.9559 -23.2609 -23.2595 -23.2557 -23.2544
   -23.2485 -23.2343 -23.2206 -23.2098 -23.1832 -23.1821 -23.1784 -23.1773
   -22.0836 -22.0737 -22.0534 -22.0486  -6.8654  -6.7769  -6.0545  -6.0386
    -5.9676  -5.9406  -5.7746  -5.6760  -5.6404  -5.5640  -5.5083  -5.5026
    -4.2644  -4.1589  -4.1090  -4.0976  -4.0921  -4.0863  -4.0793  -4.0595
    -3.9132  -3.9070  -3.8751  -3.7683   5.1644   5.1703   5.3700   5.3721
     5.7000   5.9565   6.1771   6.4006   6.4711   6.4731   6.7331   6.7429
     6.9839   7.3567   7.6586   7.6804   7.7142   7.7173   8.1311   8.1412
     8.2365   8.5176   8.5324   8.5435   8.7380   8.7913   9.3548   9.3763
     9.4980   9.5167   9.5649   9.5845   9.7692   9.7872  10.1865  10.2029
    11.7353  11.7875  12.6984  12.7231  13.4541  13.4930  14.5508  14.6265
    14.8361  14.9112  15.2337  15.3179  15.5158  15.5277  16.2645  16.4056
    16.4940  16.8078  16.9466  17.0374  17.2193

          k = 0.0000 0.0000 0.3182 ( 18522 PWs)   bands (ev):

   -48.9589 -48.9586 -48.9563 -48.9560 -23.2605 -23.2598 -23.2554 -23.2547
   -23.2417 -23.2283 -23.2275 -23.2159 -23.1830 -23.1824 -23.1781 -23.1775
   -22.0811 -22.0761 -22.0522 -22.0498  -6.8417  -6.7964  -6.0508  -6.0428
    -5.8976  -5.8943  -5.8042  -5.7501  -5.6088  -5.5694  -5.5394  -5.5358
    -4.2387  -4.1853  -4.1062  -4.1004  -4.0848  -4.0812  -4.0435  -4.0112
    -3.9501  -3.9181  -3.8762  -3.8029   5.1658   5.1688   5.3726   5.3744
     5.7632   5.8931   6.3714   6.5237   6.5307   6.6270   6.6616   6.6759
     6.7963   7.1141   7.6721   7.6800   7.7011   7.7019   8.2200   8.2309
     8.3422   8.4147   8.4278   8.5930   8.6030   8.7281   9.4652   9.4853
     9.5121   9.5314   9.5456   9.5653   9.6743   9.6927  10.1910  10.1993
    11.7478  11.7742  12.8930  12.9195  13.2744  13.3080  14.6158  14.6924
    14.7599  14.8367  15.2544  15.2971  15.5175  15.5232  16.3927  16.5376
    16.6671  16.6694  16.8113  17.0367  17.3071

          k = 0.0000 0.0000 0.3536 ( 18458 PWs)   bands (ev):

   -48.9588 -48.9587 -48.9562 -48.9561 -23.2602 -23.2601 -23.2551 -23.2550
   -23.2347 -23.2346 -23.2221 -23.2220 -23.1828 -23.1826 -23.1779 -23.1778
   -22.0786 -22.0786 -22.0510 -22.0510  -6.8183  -6.8183  -6.0469  -6.0468
    -5.8468  -5.8468  -5.8246  -5.8246  -5.5750  -5.5749  -5.5578  -5.5577
    -4.2121  -4.2121  -4.1033  -4.1033  -4.0830  -4.0830  -3.9959  -3.9959
    -3.9638  -3.9638  -3.8391  -3.8391   5.1673   5.1674   5.3742   5.3743
     5.8281   5.8282   6.5368   6.5368   6.5938   6.5938   6.6455   6.6455
     6.8671   6.8671   7.6867   7.6867   7.6890   7.6890   8.3150   8.3150
     8.3268   8.3268   8.4609   8.4610   8.6648   8.6649   9.5280   9.5281
     9.5475   9.5476   9.5724   9.5724   9.5914   9.5914  10.1953  10.1954
    11.7608  11.7609  13.0862  13.0863  13.1157  13.1157  14.6860  14.6861
    14.7630  14.7631  15.2757  15.2758  15.5198  15.5199  16.5277  16.5277
    16.6739  16.6739  16.8516  16.8517  17.3949

          k = 0.0000 0.0500 0.3536 ( 18504 PWs)   bands (ev):

   -48.9588 -48.9587 -48.9562 -48.9561 -23.2598 -23.2597 -23.2547 -23.2545
   -23.2346 -23.2345 -23.2222 -23.2221 -23.1833 -23.1832 -23.1784 -23.1782
   -22.0784 -22.0784 -22.0511 -22.0511  -6.8128  -6.8127  -6.0440  -6.0439
    -5.8682  -5.8682  -5.8195  -5.8195  -5.5775  -5.5774  -5.5549  -5.5548
    -4.2148  -4.2148  -4.1040  -4.1040  -4.0781  -4.0781  -3.9968  -3.9967
    -3.9558  -3.9558  -3.8388  -3.8388   5.1838   5.1839   5.3909   5.3910
     5.8362   5.8363   6.5350   6.5350   6.5982   6.5982   6.6414   6.6414
     6.8728   6.8728   7.6554   7.6555   7.6772   7.6772   8.2478   8.2478
     8.2732   8.2732   8.5283   8.5283   8.7214   8.7215   9.4799   9.4800
     9.5199   9.5200   9.5764   9.5765   9.5966   9.5966  10.1847  10.1848
    11.8019  11.8020  13.0907  13.0908  13.1202  13.1203  14.6792  14.6793
    14.7485  14.7486  15.2555  15.2556  15.5579  15.5580  16.5504  16.5504
    16.6894  16.6894  16.8687  16.8688  17.4127

          k = 0.0000 0.1000 0.3536 ( 18522 PWs)   bands (ev):

   -48.9587 -48.9586 -48.9563 -48.9561 -23.2586 -23.2585 -23.2533 -23.2531
   -23.2343 -23.2342 -23.2223 -23.2222 -23.1849 -23.1848 -23.1798 -23.1797
   -22.0777 -22.0777 -22.0515 -22.0515  -6.7963  -6.7962  -6.0353  -6.0352
    -5.9112  -5.9112  -5.8208  -5.8208  -5.5849  -5.5848  -5.5499  -5.5498
    -4.2203  -4.2203  -4.1062  -4.1062  -4.0643  -4.0643  -3.9993  -3.9993
    -3.9343  -3.9342  -3.8374  -3.8374   5.2332   5.2333   5.4401   5.4402
     5.8608   5.8609   6.5302   6.5302   6.6114   6.6115   6.6307   6.6307
     6.8881   6.8881   7.5636   7.5636   7.6471   7.6472   8.1381   8.1382
     8.1648   8.1648   8.6283   8.6283   8.8377   8.8377   9.3700   9.3700
     9.4543   9.4544   9.5666   9.5666   9.5998   9.5999  10.1538  10.1539
    11.9170  11.9171  13.1051  13.1052  13.1346  13.1347  14.6556  14.6557
    14.7061  14.7062  15.1958  15.1959  15.6721  15.6722  16.6160  16.6160
    16.7355  16.7355  16.9189  16.9190  17.4605

          k = 0.0000 0.1500 0.3536 ( 18518 PWs)   bands (ev):

   -48.9587 -48.9585 -48.9563 -48.9562 -23.2567 -23.2566 -23.2510 -23.2508
   -23.2338 -23.2337 -23.2226 -23.2224 -23.1876 -23.1875 -23.1821 -23.1820
   -22.0767 -22.0767 -22.0521 -22.0521  -6.7693  -6.7692  -6.0210  -6.0209
    -5.9651  -5.9651  -5.8300  -5.8300  -5.5971  -5.5970  -5.5502  -5.5502
    -4.2238  -4.2238  -4.1098  -4.1098  -4.0450  -4.0450  -4.0031  -4.0030
    -3.9041  -3.9041  -3.8338  -3.8338   5.3144   5.3146   5.5188   5.5189
     5.9028   5.9029   6.5238   6.5238   6.6166   6.6166   6.6336   6.6337
     6.9093   6.9093   7.4336   7.4336   7.5935   7.5936   8.0180   8.0181
     8.0446   8.0446   8.7001   8.7001   8.9669   8.9670   9.2333   9.2333
     9.3676   9.3677   9.5435   9.5436   9.5979   9.5979  10.1046  10.1046
    12.0882  12.0883  13.1315  13.1315  13.1608  13.1609  14.6097  14.6098
    14.6379  14.6380  15.0997  15.0998  15.8595  15.8596  16.7182  16.7182
    16.8106  16.8106  16.9986  16.9987  17.5206

          k = 0.0000 0.2000 0.3536 ( 18550 PWs)   bands (ev):

   -48.9586 -48.9584 -48.9565 -48.9563 -23.2540 -23.2538 -23.2478 -23.2477
   -23.2331 -23.2330 -23.2229 -23.2228 -23.1912 -23.1911 -23.1853 -23.1852
   -22.0752 -22.0752 -22.0530 -22.0530  -6.7326  -6.7326  -6.0247  -6.0246
    -6.0017  -6.0016  -5.8430  -5.8430  -5.6139  -5.6138  -5.5613  -5.5612
    -4.2216  -4.2216  -4.1144  -4.1144  -4.0254  -4.0254  -4.0076  -4.0076
    -3.8701  -3.8701  -3.8261  -3.8261   5.4260   5.4262   5.6208   5.6209
     5.9645   5.9646   6.5176   6.5177   6.6019   6.6019   6.6648   6.6648
     6.9330   6.9330   7.2858   7.2859   7.5149   7.5150   7.8882   7.8882
     7.9191   7.9191   8.6845   8.6845   9.0931   9.0932   9.1334   9.1334
     9.2788   9.2789   9.5138   9.5138   9.5913   9.5913  10.0404  10.0405
    12.2969  12.2970  13.1722  13.1723  13.2011  13.2012  14.5395  14.5396
    14.5470  14.5471  14.9717  14.9718  16.1108  16.1109  16.8477  16.8478
    16.9125  16.9125  17.1010  17.1011  17.5753

          k = 0.0000 0.2500 0.3536 ( 18528 PWs)   bands (ev):

   -48.9584 -48.9583 -48.9566 -48.9565 -23.2506 -23.2504 -23.2439 -23.2438
   -23.2323 -23.2322 -23.2233 -23.2232 -23.1956 -23.1954 -23.1893 -23.1892
   -22.0735 -22.0735 -22.0541 -22.0541  -6.6875  -6.6874  -6.0864  -6.0864
    -5.9777  -5.9777  -5.8559  -5.8559  -5.6350  -5.6349  -5.5849  -5.5848
    -4.2123  -4.2123  -4.1198  -4.1198  -4.0123  -4.0123  -4.0106  -4.0106
    -3.8359  -3.8359  -3.8125  -3.8125   5.5659   5.5660   5.7365   5.7366
     6.0494   6.0495   6.5115   6.5115   6.5917   6.5917   6.7051   6.7052
     6.9547   6.9547   7.1390   7.1390   7.4137   7.4138   7.7506   7.7507
     7.7825   7.7825   8.5374   8.5375   9.1225   9.1225   9.1869   9.1869
     9.2296   9.2297   9.4829   9.4829   9.5793   9.5793   9.9661   9.9662
    12.5287  12.5288  13.2295  13.2296  13.2577  13.2578  14.4373  14.4374
    14.4466  14.4467  14.8168  14.8169  16.4132  16.4133  16.9949  16.9949
    17.0383  17.0383  17.2155  17.2156  17.6240

          k = 0.0000 0.3000 0.3536 ( 18494 PWs)   bands (ev):

   -48.9583 -48.9581 -48.9567 -48.9566 -23.2465 -23.2464 -23.2393 -23.2392
   -23.2314 -23.2312 -23.2239 -23.2238 -23.2006 -23.2005 -23.1939 -23.1938
   -22.0715 -22.0715 -22.0554 -22.0554  -6.6354  -6.6353  -6.1485  -6.1485
    -5.9501  -5.9500  -5.8654  -5.8654  -5.6599  -5.6598  -5.6194  -5.6194
    -4.1968  -4.1968  -4.1253  -4.1253  -4.0168  -4.0167  -4.0038  -4.0038
    -3.8041  -3.8041  -3.7933  -3.7933   5.7313   5.7314   5.8535   5.8536
     6.1595   6.1595   6.4972   6.4972   6.5997   6.5997   6.7548   6.7549
     6.9390   6.9391   7.0403   7.0404   7.2931   7.2931   7.6100   7.6101
     7.6301   7.6301   8.3129   8.3130   9.1546   9.1546   9.1561   9.1562
     9.3209   9.3209   9.4553   9.4554   9.5607   9.5607   9.8877   9.8878
    12.7734  12.7735  13.3046  13.3047  13.3320  13.3320  14.3128  14.3129
    14.3347  14.3348  14.6397  14.6398  16.7530  16.7531  17.1497  17.1497
    17.1848  17.1848  17.3274  17.3275  17.6743

          k = 0.0000 0.3500 0.3536 ( 18514 PWs)   bands (ev):

   -48.9581 -48.9580 -48.9569 -48.9568 -23.2419 -23.2418 -23.2342 -23.2341
   -23.2303 -23.2302 -23.2245 -23.2244 -23.2061 -23.2060 -23.1991 -23.1990
   -22.0694 -22.0694 -22.0570 -22.0570  -6.5781  -6.5780  -6.2100  -6.2100
    -5.9200  -5.9199  -5.8690  -5.8689  -5.6877  -5.6876  -5.6609  -5.6608
    -4.1777  -4.1777  -4.1305  -4.1305  -4.0205  -4.0205  -4.0048  -4.0048
    -3.7772  -3.7772  -3.7717  -3.7717   5.9187   5.9188   5.9631   5.9632
     6.2849   6.2849   6.4640   6.4640   6.6465   6.6465   6.8138   6.8139
     6.8351   6.8352   7.0528   7.0528   7.1518   7.1519   7.4685   7.4685
     7.4722   7.4722   8.0601   8.0602   9.1467   9.1468   9.1890   9.1890
     9.4044   9.4044   9.4342   9.4342   9.5370   9.5370   9.8123   9.8123
    13.0236  13.0237  13.3973  13.3974  13.4241  13.4242  14.1778  14.1779
    14.2082  14.2083  14.4445  14.4446  17.1156  17.1157  17.3009  17.3009
    17.3500  17.3500  17.4220  17.4221  17.7274

          k = 0.0000 0.4000 0.3536 ( 18520 PWs)   bands (ev):

   -48.9579 -48.9578 -48.9571 -48.9570 -23.2369 -23.2368 -23.2292 -23.2291
   -23.2286 -23.2285 -23.2253 -23.2251 -23.2119 -23.2118 -23.2047 -23.2046
   -22.0672 -22.0672 -22.0587 -22.0587  -6.5175  -6.5175  -6.2710  -6.2709
    -5.8891  -5.8890  -5.8652  -5.8652  -5.7166  -5.7165  -5.7034  -5.7034
    -4.1584  -4.1584  -4.1347  -4.1347  -4.0234  -4.0234  -4.0108  -4.0108
    -3.7566  -3.7566  -3.7524  -3.7524   6.0645   6.0646   6.1238   6.1239
     6.3979   6.3979   6.4111   6.4112   6.7196   6.7196   6.7601   6.7601
     6.8791   6.8792   6.9873   6.9874   7.0992   7.0992   7.3145   7.3146
     7.3437   7.3437   7.8017   7.8018   9.1645   9.1646   9.2137   9.2137
     9.4208   9.4209   9.4404   9.4404   9.5356   9.5356   9.7455   9.7455
    13.2736  13.2737  13.5066  13.5066  13.5330  13.5331  14.0364  14.0365
    14.0722  14.0723  14.2349  14.2350  17.4297  17.4297  17.4569  17.4569
    17.4953  17.4954  17.5613  17.5614  17.7737

          k = 0.0000 0.4500 0.3536 ( 18544 PWs)   bands (ev):

   -48.9577 -48.9576 -48.9573 -48.9572 -23.2322 -23.2321 -23.2279 -23.2278
   -23.2259 -23.2258 -23.2227 -23.2226 -23.2177 -23.2176 -23.2106 -23.2105
   -22.0649 -22.0649 -22.0607 -22.0607  -6.4555  -6.4554  -6.3319  -6.3319
    -5.8617  -5.8616  -5.8559  -5.8559  -5.7428  -5.7428  -5.7390  -5.7389
    -4.1433  -4.1433  -4.1375  -4.1375  -4.0251  -4.0251  -4.0177  -4.0177
    -3.7432  -3.7432  -3.7396  -3.7396   6.1604   6.1605   6.3370   6.3370
     6.3410   6.3411   6.4871   6.4871   6.6400   6.6401   6.7786   6.7787
     6.9028   6.9029   6.9704   6.9705   7.1473   7.1473   7.1823   7.1823
     7.2534   7.2534   7.5559   7.5560   9.1963   9.1963   9.2273   9.2273
     9.4130   9.4130   9.4143   9.4143   9.5819   9.5819   9.6879   9.6880
    13.5170  13.5171  13.6314  13.6315  13.6557  13.6558  13.8926  13.8926
    13.9322  13.9323  14.0154  14.0155  17.5037  17.5037  17.5555  17.5555
    17.6624  17.6624  17.8167  17.8172  17.9025

          k = 0.0000 0.5000 0.3536 ( 18528 PWs)   bands (ev):

   -48.9576 -48.9575 -48.9574 -48.9573 -23.2301 -23.2300 -23.2268 -23.2268
   -23.2249 -23.2249 -23.2217 -23.2217 -23.2167 -23.2166 -23.2166 -23.2165
   -22.0628 -22.0628 -22.0628 -22.0628  -6.3944  -6.3944  -6.3924  -6.3924
    -5.8498  -5.8498  -5.8487  -5.8487  -5.7554  -5.7554  -5.7543  -5.7543
    -4.1385  -4.1385  -4.1374  -4.1374  -4.0257  -4.0257  -4.0209  -4.0209
    -3.7386  -3.7386  -3.7352  -3.7352   6.2514   6.2514   6.2527   6.2527
     6.5482   6.5482   6.5483   6.5483   6.5782   6.5782   6.5787   6.5787
     7.0315   7.0315   7.0415   7.0415   7.0812   7.0812   7.0926   7.0926
     7.3495   7.3495   7.3527   7.3527   9.2149   9.2149   9.2315   9.2315
     9.3923   9.3923   9.4124   9.4124   9.6349   9.6349   9.6352   9.6352
    13.7187  13.7188  13.7268  13.7268  13.7717  13.7717  13.7895  13.7896
    13.8103  13.8103  13.8229  13.8229  17.5242  17.5242  17.5799  17.5799
    17.7805  17.7805  17.8527  17.8533  17.9201

          k = 0.0500 0.5000 0.3536 ( 18544 PWs)   bands (ev):

   -48.9576 -48.9575 -48.9574 -48.9573 -23.2316 -23.2315 -23.2291 -23.2291
   -23.2266 -23.2266 -23.2245 -23.2245 -23.2127 -23.2127 -23.2124 -23.2124
   -22.0627 -22.0627 -22.0627 -22.0627  -6.4030  -6.4030  -6.4027  -6.4027
    -5.8517  -5.8517  -5.8372  -5.8372  -5.7607  -5.7607  -5.7442  -5.7442
    -4.1559  -4.1559  -4.1119  -4.1119  -4.0544  -4.0544  -3.9870  -3.9870
    -3.7394  -3.7394  -3.7353  -3.7353   6.2175   6.2175   6.2191   6.2191
     6.4326   6.4326   6.4523   6.4523   6.6645   6.6645   6.7080   6.7080
     6.9656   6.9656   7.0406   7.0406   7.0766   7.0766   7.0988   7.0988
     7.4296   7.4296   7.4304   7.4304   9.1742   9.1742   9.2505   9.2505
     9.3639   9.3639   9.4060   9.4060   9.6282   9.6282   9.6352   9.6352
    13.6454  13.6454  13.6728  13.6728  13.7981  13.7981  13.8126  13.8126
    13.8587  13.8587  13.8940  13.8940  17.5255  17.5255  17.5997  17.5997
    17.7874  17.7874  17.8557  17.8636  17.8638

          k = 0.1000 0.5000 0.3536 ( 18516 PWs)   bands (ev):

   -48.9576 -48.9575 -48.9574 -48.9573 -23.2363 -23.2363 -23.2354 -23.2354
   -23.2266 -23.2266 -23.2260 -23.2260 -23.2064 -23.2064 -23.2061 -23.2061
   -22.0626 -22.0626 -22.0626 -22.0626  -6.4306  -6.4306  -6.4269  -6.4269
    -5.8542  -5.8542  -5.8091  -5.8091  -5.7680  -5.7680  -5.7242  -5.7242
    -4.1649  -4.1649  -4.0798  -4.0798  -4.0785  -4.0785  -3.9479  -3.9479
    -3.7417  -3.7417  -3.7352  -3.7352   6.1060   6.1060   6.1065   6.1065
     6.3583   6.3583   6.3795   6.3795   6.7449   6.7449   6.7940   6.7940
     6.9021   6.9021   6.9769   6.9769   7.1181   7.1181   7.1411   7.1411
     7.5903   7.5903   7.6036   7.6036   9.1124   9.1124   9.2459   9.2459
     9.3042   9.3042   9.3634   9.3634   9.6124   9.6124   9.6379   9.6379
    13.5570  13.5570  13.5890  13.5890  13.8425  13.8425  13.8535  13.8535
    13.9665  13.9665  13.9924  13.9924  17.5090  17.5090  17.6388  17.6388
    17.7277  17.7277  17.7860  17.7860  17.8195

          k = 0.1500 0.5000 0.3536 ( 18532 PWs)   bands (ev):

   -48.9576 -48.9575 -48.9574 -48.9573 -23.2422 -23.2422 -23.2418 -23.2418
   -23.2265 -23.2265 -23.2264 -23.2263 -23.2002 -23.2002 -23.2000 -23.2000
   -22.0624 -22.0624 -22.0624 -22.0624  -6.4693  -6.4693  -6.4615  -6.4615
    -5.8576  -5.8576  -5.7783  -5.7783  -5.7704  -5.7704  -5.6969  -5.6969
    -4.1646  -4.1646  -4.0947  -4.0947  -4.0442  -4.0442  -3.9090  -3.9090
    -3.7445  -3.7445  -3.7346  -3.7346   5.9472   5.9472   5.9507   5.9507
     6.3110   6.3110   6.3421   6.3421   6.7470   6.7470   6.7933   6.7933
     6.9158   6.9158   6.9817   6.9817   7.1741   7.1741   7.2057   7.2057
     7.7786   7.7786   7.8118   7.8118   9.0417   9.0417   9.2047   9.2047
     9.2229   9.2229   9.2853   9.2853   9.5988   9.5988   9.6423   9.6423
    13.4757  13.4757  13.5069  13.5069  13.9085  13.9085  13.9173  13.9173
    14.0780  14.0780  14.0949  14.0949  17.3969  17.3969  17.4702  17.4702
    17.7362  17.7362  17.7479  17.7479  17.8479

          k = 0.2000 0.5000 0.3536 ( 18496 PWs)   bands (ev):

   -48.9576 -48.9575 -48.9574 -48.9573 -23.2480 -23.2480 -23.2478 -23.2478
   -23.2265 -23.2264 -23.2263 -23.2263 -23.1945 -23.1945 -23.1943 -23.1943
   -22.0621 -22.0621 -22.0621 -22.0621  -6.5122  -6.5122  -6.5015  -6.5015
    -5.8617  -5.8617  -5.7911  -5.7911  -5.7276  -5.7276  -5.6668  -5.6668
    -4.1559  -4.1559  -4.1029  -4.1029  -4.0085  -4.0085  -3.8750  -3.8750
    -3.7456  -3.7456  -3.7327  -3.7327   5.7839   5.7839   5.7889   5.7889
     6.2653   6.2653   6.3075   6.3075   6.7120   6.7120   6.7484   6.7484
     6.9786   6.9786   7.0349   7.0349   7.2388   7.2388   7.2780   7.2780
     7.9736   7.9736   8.0294   8.0294   8.9660   8.9660   9.1154   9.1154
     9.1330   9.1330   9.1939   9.1939   9.5930   9.5930   9.6454   9.6454
    13.4030  13.4030  13.4310  13.4310  13.9876  13.9876  13.9948  13.9948
    14.1880  14.1880  14.1967  14.1967  17.1984  17.1984  17.2345  17.2345
    17.7680  17.7680  17.8188  17.8188  17.8933

          k = 0.2500 0.5000 0.3536 ( 18516 PWs)   bands (ev):

   -48.9576 -48.9575 -48.9574 -48.9573 -23.2534 -23.2534 -23.2532 -23.2532
   -23.2263 -23.2263 -23.2262 -23.2261 -23.1894 -23.1893 -23.1892 -23.1892
   -22.0618 -22.0618 -22.0618 -22.0618  -6.5542  -6.5542  -6.5423  -6.5423
    -5.8659  -5.8659  -5.8055  -5.8055  -5.6860  -5.6860  -5.6375  -5.6375
    -4.1401  -4.1401  -4.1033  -4.1033  -3.9760  -3.9760  -3.8520  -3.8520
    -3.7408  -3.7408  -3.7283  -3.7283   5.6328   5.6328   5.6379   5.6379
     6.2173   6.2173   6.2661   6.2661   6.6837   6.6837   6.7088   6.7088
     7.0517   7.0517   7.1008   7.1008   7.3043   7.3043   7.3457   7.3457
     8.1579   8.1579   8.2411   8.2411   8.8851   8.8851   8.9813   8.9813
     9.0518   9.0518   9.1077   9.1077   9.5931   9.5931   9.6454   9.6454
    13.3396  13.3396  13.3630  13.3630  14.0704  14.0704  14.0766  14.0766
    14.2917  14.2917  14.2935  14.2935  16.9865  16.9865  17.0064  17.0064
    17.8335  17.8335  17.8744  17.8744  17.9487

          k = 0.3000 0.5000 0.3536 ( 18500 PWs)   bands (ev):

   -48.9576 -48.9575 -48.9574 -48.9573 -23.2580 -23.2580 -23.2579 -23.2579
   -23.2262 -23.2261 -23.2260 -23.2260 -23.1850 -23.1850 -23.1848 -23.1848
   -22.0616 -22.0616 -22.0615 -22.0615  -6.5918  -6.5918  -6.5803  -6.5803
    -5.8694  -5.8694  -5.8202  -5.8202  -5.6487  -5.6487  -5.6117  -5.6117
    -4.1197  -4.1197  -4.0973  -4.0973  -3.9498  -3.9498  -3.8450  -3.8450
    -3.7274  -3.7274  -3.7205  -3.7205   5.5019   5.5019   5.5065   5.5065
     6.1708   6.1708   6.2194   6.2194   6.6655   6.6655   6.6819   6.6819
     7.1300   7.1300   7.1739   7.1739   7.3646   7.3646   7.4018   7.4018
     8.3124   8.3124   8.4343   8.4343   8.7998   8.7998   8.8351   8.8351
     8.9869   8.9869   9.0304   9.0304   9.5960   9.5960   9.6422   9.6422
    13.2865  13.2865  13.3047  13.3047  14.1485  14.1485  14.1543  14.1543
    14.3811  14.3811  14.3841  14.3841  16.7896  16.7896  16.8002  16.8002
    17.9063  17.9063  17.9181  17.9181  18.0157

          k = 0.3500 0.5000 0.3536 ( 18524 PWs)   bands (ev):

   -48.9576 -48.9575 -48.9574 -48.9573 -23.2617 -23.2617 -23.2616 -23.2616
   -23.2260 -23.2260 -23.2259 -23.2258 -23.1815 -23.1815 -23.1814 -23.1814
   -22.0613 -22.0613 -22.0613 -22.0613  -6.6225  -6.6225  -6.6128  -6.6128
    -5.8716  -5.8716  -5.8343  -5.8343  -5.6177  -5.6177  -5.5913  -5.5913
    -4.0978  -4.0978  -4.0870  -4.0870  -3.9312  -3.9312  -3.8510  -3.8510
    -3.7098  -3.7098  -3.7096  -3.7096   5.3960   5.3960   5.3996   5.3996
     6.1311   6.1311   6.1730   6.1730   6.6547   6.6547   6.6652   6.6652
     7.2098   7.2098   7.2499   7.2499   7.4163   7.4163   7.4439   7.4439
     8.4098   8.4098   8.5891   8.5891   8.6989   8.6989   8.7306   8.7306
     8.9524   8.9524   8.9646   8.9646   9.5999   9.5999   9.6365   9.6365
    13.2444  13.2444  13.2575  13.2575  14.2153  14.2153  14.2206  14.2206
    14.4553  14.4553  14.4606  14.4606  16.6220  16.6220  16.6270  16.6270
    17.9555  17.9555  17.9671  17.9671  18.0994

          k = 0.4000 0.5000 0.3536 ( 18540 PWs)   bands (ev):

   -48.9576 -48.9575 -48.9574 -48.9573 -23.2645 -23.2645 -23.2644 -23.2644
   -23.2259 -23.2258 -23.2258 -23.2257 -23.1789 -23.1789 -23.1788 -23.1788
   -22.0611 -22.0611 -22.0611 -22.0611  -6.6449  -6.6449  -6.6380  -6.6379
    -5.8719  -5.8719  -5.8469  -5.8469  -5.5941  -5.5941  -5.5772  -5.5772
    -4.0782  -4.0782  -4.0750  -4.0750  -3.9185  -3.9185  -3.8641  -3.8641
    -3.6976  -3.6976  -3.6943  -3.6943   5.3184   5.3184   5.3208   5.3208
     6.1023   6.1023   6.1327   6.1327   6.6489   6.6489   6.6552   6.6552
     7.2845   7.2845   7.3191   7.3191   7.4570   7.4570   7.4718   7.4718
     8.4253   8.4253   8.5475   8.5475   8.7135   8.7135   8.7300   8.7300
     8.9186   8.9186   8.9447   8.9447   9.6042   9.6042   9.6295   9.6295
    13.2141  13.2141  13.2225  13.2225  14.2662  14.2662  14.2704  14.2704
    14.5122  14.5122  14.5173  14.5173  16.4943  16.4943  16.4960  16.4960
    17.9877  17.9877  18.0069  18.0069  18.1956

          k = 0.4500 0.5000 0.3536 ( 18540 PWs)   bands (ev):

   -48.9576 -48.9575 -48.9574 -48.9573 -23.2662 -23.2662 -23.2661 -23.2661
   -23.2258 -23.2257 -23.2257 -23.2256 -23.1774 -23.1774 -23.1773 -23.1773
   -22.0610 -22.0610 -22.0610 -22.0610  -6.6580  -6.6580  -6.6543  -6.6543
    -5.8698  -5.8698  -5.8572  -5.8572  -5.5782  -5.5782  -5.5700  -5.5700
    -4.0649  -4.0649  -4.0648  -4.0648  -3.9076  -3.9076  -3.8799  -3.8799
    -3.6877  -3.6877  -3.6849  -3.6849   5.2712   5.2712   5.2725   5.2725
     6.0873   6.0873   6.1033   6.1033   6.6466   6.6466   6.6496   6.6496
     7.3434   7.3434   7.3657   7.3657   7.4839   7.4839   7.4881   7.4881
     8.4010   8.4010   8.4522   8.4522   8.7342   8.7342   8.7744   8.7744
     8.9138   8.9138   8.9468   8.9468   9.6092   9.6092   9.6220   9.6220
    13.1965  13.1965  13.2005  13.2005  14.2982  14.2982  14.3006  14.3006
    14.5486  14.5486  14.5517  14.5517  16.4142  16.4142  16.4145  16.4145
    18.0126  18.0126  18.0259  18.0259  18.2890

          k = 0.5000 0.5000 0.3536 ( 18616 PWs)   bands (ev):

   -48.9576 -48.9575 -48.9574 -48.9573 -23.2668 -23.2668 -23.2666 -23.2666
   -23.2258 -23.2257 -23.2257 -23.2256 -23.1769 -23.1769 -23.1767 -23.1767
   -22.0609 -22.0609 -22.0609 -22.0609  -6.6611  -6.6611  -6.6611  -6.6611
    -5.8649  -5.8649  -5.8649  -5.8649  -5.5703  -5.5703  -5.5703  -5.5703
    -4.0605  -4.0605  -4.0605  -4.0605  -3.8950  -3.8950  -3.8950  -3.8950
    -3.6828  -3.6828  -3.6828  -3.6828   5.2557   5.2557   5.2558   5.2558
     6.0876   6.0876   6.0877   6.0877   6.6468   6.6468   6.6469   6.6469
     7.3739   7.3739   7.3740   7.3740   7.4938   7.4938   7.4938   7.4938
     8.4014   8.4014   8.4015   8.4015   8.7608   8.7608   8.7609   8.7609
     8.9372   8.9372   8.9372   8.9372   9.6151   9.6151   9.6151   9.6151
    13.1918  13.1918  13.1919  13.1919  14.3098  14.3099  14.3100  14.3100
    14.5620  14.5620  14.5621  14.5621  16.3868  16.3868  16.3869  16.3869
    18.0266  18.0266  18.0266  18.0266  18.3580

          k = 0.4500 0.4500 0.3536 ( 18510 PWs)   bands (ev):

   -48.9576 -48.9574 -48.9574 -48.9573 -23.2665 -23.2664 -23.2647 -23.2646
   -23.2260 -23.2259 -23.2257 -23.2256 -23.1789 -23.1787 -23.1769 -23.1768
   -22.0613 -22.0613 -22.0607 -22.0607  -6.6586  -6.6585  -6.6437  -6.6436
    -5.8705  -5.8705  -5.8538  -5.8537  -5.5872  -5.5872  -5.5692  -5.5691
    -4.0765  -4.0765  -4.0617  -4.0617  -3.9065  -3.9064  -3.8772  -3.8772
    -3.6921  -3.6921  -3.6887  -3.6887   5.2557   5.2558   5.3197   5.3198
     6.0911   6.0912   6.1150   6.1151   6.6465   6.6465   6.6523   6.6523
     7.2921   7.2922   7.3738   7.3739   7.4631   7.4631   7.5062   7.5062
     8.3946   8.3947   8.5048   8.5049   8.6921   8.6921   8.7787   8.7787
     8.9140   8.9140   8.9544   8.9544   9.6091   9.6091   9.6221   9.6221
    13.1884  13.1885  13.2223  13.2224  14.2612  14.2613  14.3118  14.3119
    14.5238  14.5239  14.5587  14.5588  16.3823  16.3824  16.4982  16.4984
    17.9772  17.9772  18.0482  18.0482  18.2705

          k = 0.4000 0.4000 0.3536 ( 18500 PWs)   bands (ev):

   -48.9576 -48.9575 -48.9574 -48.9572 -23.2659 -23.2658 -23.2588 -23.2586
   -23.2265 -23.2264 -23.2254 -23.2253 -23.1846 -23.1845 -23.1772 -23.1770
   -22.0626 -22.0626 -22.0600 -22.0600  -6.6517  -6.6516  -6.5934  -6.5934
    -5.8784  -5.8784  -5.8289  -5.8289  -5.6324  -5.6323  -5.5687  -5.5686
    -4.1139  -4.1139  -4.0651  -4.0651  -3.9167  -3.9167  -3.8564  -3.8564
    -3.7163  -3.7163  -3.7082  -3.7082   5.2556   5.2558   5.5048   5.5049
     6.1084   6.1085   6.1861   6.1862   6.6464   6.6464   6.6701   6.6701
     7.1043   7.1044   7.3202   7.3202   7.4283   7.4284   7.5597   7.5597
     8.3684   8.3684   8.4645   8.4645   8.7030   8.7030   8.8266   8.8267
     8.9366   8.9367   9.0031   9.0031   9.6028   9.6028   9.6291   9.6291
    13.1787  13.1788  13.3132  13.3133  14.1088  14.1089  14.2786  14.2787
    14.4546  14.4548  14.5611  14.5612  16.3679  16.3680  16.8047  16.8048
    17.8517  17.8517  18.1075  18.1081  18.1365

          k = 0.3500 0.3500 0.3536 ( 18512 PWs)   bands (ev):

   -48.9578 -48.9576 -48.9572 -48.9571 -23.2649 -23.2648 -23.2495 -23.2494
   -23.2274 -23.2273 -23.2250 -23.2248 -23.1936 -23.1935 -23.1775 -23.1774
   -22.0645 -22.0645 -22.0589 -22.0589  -6.6452  -6.6451  -6.5143  -6.5143
    -5.8886  -5.8885  -5.7911  -5.7910  -5.6980  -5.6979  -5.5681  -5.5680
    -4.1571  -4.1571  -4.0704  -4.0704  -3.9282  -3.9282  -3.8416  -3.8416
    -3.7529  -3.7529  -3.7386  -3.7386   5.2556   5.2557   5.7895   5.7896
     6.1293   6.1293   6.2943   6.2943   6.6458   6.6458   6.7120   6.7120
     6.8980   6.8981   7.1692   7.1692   7.4477   7.4477   7.6477   7.6478
     8.0390   8.0391   8.4192   8.4193   8.7842   8.7843   8.9680   8.9681
     9.0394   9.0395   9.0997   9.0998   9.5929   9.5929   9.6349   9.6349
    13.1623  13.1624  13.4593  13.4594  13.8638  13.8639  14.1151  14.1152
    14.4729  14.4730  14.5779  14.5780  16.3411  16.3412  17.2273  17.2274
    17.6888  17.6888  17.9618  17.9619  18.1680

          k = 0.3000 0.3000 0.3536 ( 18536 PWs)   bands (ev):

   -48.9580 -48.9578 -48.9571 -48.9569 -23.2637 -23.2636 -23.2382 -23.2381
   -23.2281 -23.2280 -23.2244 -23.2242 -23.2049 -23.2048 -23.1780 -23.1779
   -22.0669 -22.0669 -22.0575 -22.0575  -6.6459  -6.6459  -6.4129  -6.4128
    -5.8986  -5.8985  -5.7823  -5.7822  -5.7323  -5.7323  -5.5679  -5.5678
    -4.1960  -4.1960  -4.0768  -4.0768  -3.9418  -3.9418  -3.8387  -3.8387
    -3.7980  -3.7979  -3.7744  -3.7744   5.2554   5.2555   6.1295   6.1296
     6.1424   6.1425   6.4151   6.4151   6.6429   6.6429   6.7224   6.7225
     6.8118   6.8118   6.9472   6.9472   7.4765   7.4765   7.6457   7.6457
     7.7639   7.7640   8.4405   8.4406   8.8160   8.8160   9.0135   9.0136
     9.2086   9.2087   9.2883   9.2884   9.5703   9.5703   9.6493   9.6493
    13.1353  13.1354  13.5223  13.5224  13.6860  13.6861  13.8828  13.8829
    14.5511  14.5512  14.6074  14.6074  16.2978  16.2979  17.4455  17.4455
    17.7093  17.7093  17.7514  17.7514  18.0975

          k = 0.2500 0.2500 0.3536 ( 18550 PWs)   bands (ev):

   -48.9582 -48.9580 -48.9569 -48.9567 -23.2623 -23.2622 -23.2314 -23.2313
   -23.2248 -23.2247 -23.2221 -23.2220 -23.2173 -23.2172 -23.1785 -23.1784
   -22.0696 -22.0696 -22.0560 -22.0560  -6.6608  -6.6607  -6.2974  -6.2974
    -5.9107  -5.9107  -5.8431  -5.8431  -5.6809  -5.6809  -5.5682  -5.5681
    -4.2245  -4.2245  -4.0835  -4.0835  -3.9602  -3.9602  -3.8534  -3.8534
    -3.8452  -3.8452  -3.8051  -3.8051   5.2549   5.2550   6.1119   6.1119
     6.4343   6.4343   6.5496   6.5497   6.5902   6.5902   6.6144   6.6144
     6.6786   6.6786   7.0220   7.0220   7.3095   7.3095   7.5451   7.5451
     7.8930   7.8930   8.4826   8.4826   8.8473   8.8473   9.0748   9.0749
     9.3187   9.3187   9.4472   9.4472   9.5334   9.5334   9.7143   9.7143
    13.0453  13.0453  13.2437  13.2437  13.6440  13.6441  13.9013  13.9014
    14.6261  14.6262  14.6818  14.6819  16.2312  16.2314  17.2632  17.2632
    17.4605  17.4605  17.8411  17.8411  18.0530

          k = 0.2000 0.2000 0.3536 ( 18542 PWs)   bands (ev):

   -48.9584 -48.9582 -48.9567 -48.9565 -23.2610 -23.2609 -23.2322 -23.2321
   -23.2296 -23.2294 -23.2235 -23.2234 -23.2102 -23.2101 -23.1790 -23.1788
   -22.0724 -22.0724 -22.0544 -22.0544  -6.6921  -6.6921  -6.1773  -6.1773
    -5.9437  -5.9436  -5.8653  -5.8653  -5.6290  -5.6289  -5.5688  -5.5687
    -4.2393  -4.2393  -4.0895  -4.0895  -3.9871  -3.9871  -3.8962  -3.8962
    -3.8767  -3.8767  -3.8233  -3.8233   5.2532   5.2533   6.0442   6.0443
     6.2245   6.2246   6.5031   6.5031   6.5825   6.5825   6.6417   6.6417
     6.8492   6.8493   7.1158   7.1158   7.3350   7.3350   7.5867   7.5868
     8.0263   8.0263   8.5361   8.5361   8.9016   8.9016   9.1580   9.1581
     9.3833   9.3834   9.4234   9.4234   9.5536   9.5536   9.8572   9.8573
    12.7373  12.7374  13.1537  13.1538  13.4343  13.4344  14.1437  14.1438
    14.6619  14.6619  14.8235  14.8236  16.1290  16.1291  17.0702  17.0702
    17.1829  17.1829  17.5762  17.5762  17.8479

          k = 0.1500 0.1500 0.3536 ( 18532 PWs)   bands (ev):

   -48.9585 -48.9584 -48.9565 -48.9563 -23.2599 -23.2598 -23.2409 -23.2408
   -23.2329 -23.2328 -23.2229 -23.2228 -23.1985 -23.1984 -23.1793 -23.1792
   -22.0749 -22.0749 -22.0531 -22.0531  -6.7345  -6.7345  -6.0648  -6.0648
    -5.9812  -5.9811  -5.8565  -5.8565  -5.5892  -5.5891  -5.5686  -5.5685
    -4.2403  -4.2403  -4.0939  -4.0939  -4.0214  -4.0214  -3.9372  -3.9371
    -3.9070  -3.9070  -3.8332  -3.8332   5.2479   5.2480   5.8550   5.8551
     5.9615   5.9616   6.5205   6.5206   6.5895   6.5895   6.6371   6.6371
     6.9906   6.9906   7.1428   7.1428   7.6271   7.6271   7.6620   7.6620
     8.1474   8.1474   8.5703   8.5703   9.0130   9.0131   9.2472   9.2472
     9.2645   9.2646   9.4982   9.4983   9.5715   9.5715  10.0016  10.0017
    12.3812  12.3813  13.1272  13.1273  13.2749  13.2749  14.3747  14.3748
    14.6907  14.6908  14.9816  14.9817  15.9743  15.9744  16.8899  16.8899
    16.9410  16.9410  17.2535  17.2536  17.6762

          k = 0.1000 0.1000 0.3536 ( 18540 PWs)   bands (ev):

   -48.9587 -48.9586 -48.9563 -48.9562 -23.2593 -23.2591 -23.2494 -23.2492
   -23.2339 -23.2338 -23.2225 -23.2224 -23.1893 -23.1891 -23.1794 -23.1792
   -22.0769 -22.0769 -22.0520 -22.0520  -6.7767  -6.7767  -6.0267  -6.0266
    -5.9478  -5.9478  -5.8409  -5.8409  -5.5727  -5.5726  -5.5632  -5.5631
    -4.2309  -4.2309  -4.0968  -4.0968  -4.0548  -4.0548  -3.9676  -3.9676
    -3.9359  -3.9359  -3.8376  -3.8376   5.2322   5.2323   5.5694   5.5695
     5.8901   5.8902   6.5317   6.5318   6.5947   6.5947   6.6376   6.6376
     6.9176   6.9176   7.4078   7.4078   7.6599   7.6599   7.9355   7.9355
     8.2420   8.2420   8.5646   8.5647   8.9890   8.9890   9.2669   9.2669
     9.3845   9.3845   9.5536   9.5536   9.5823   9.5823  10.1094  10.1095
    12.0665  12.0666  13.1102  13.1103  13.1730  13.1731  14.5622  14.5623
    14.7139  14.7140  15.1293  15.1294  15.7722  15.7723  16.7061  16.7061
    16.7872  16.7872  17.0128  17.0129  17.5427

          k = 0.0500 0.0500 0.3536 ( 18524 PWs)   bands (ev):

   -48.9588 -48.9586 -48.9562 -48.9561 -23.2596 -23.2595 -23.2541 -23.2539
   -23.2345 -23.2344 -23.2222 -23.2221 -23.1840 -23.1839 -23.1787 -23.1785
   -22.0782 -22.0782 -22.0512 -22.0512  -6.8073  -6.8072  -6.0413  -6.0412
    -5.8760  -5.8760  -5.8286  -5.8286  -5.5730  -5.5729  -5.5582  -5.5582
    -4.2182  -4.2182  -4.1002  -4.1002  -4.0769  -4.0769  -3.9878  -3.9878
    -3.9567  -3.9567  -3.8389  -3.8389   5.1948   5.1949   5.4133   5.4134
     5.8439   5.8440   6.5363   6.5363   6.5942   6.5943   6.6428   6.6428
     6.8789   6.8789   7.6101   7.6102   7.6807   7.6808   8.1625   8.1625
     8.3012   8.3012   8.5283   8.5284   8.7799   8.7800   9.4469   9.4470
     9.4926   9.4927   9.5756   9.5756   9.5924   9.5925  10.1739  10.1740
    11.8432  11.8433  13.0949  13.0950  13.1257  13.1258  14.6661  14.6662
    14.7411  14.7412  15.2364  15.2365  15.5910  15.5911  16.5735  16.5736
    16.7023  16.7023  16.8884  16.8884  17.4356

          k = 0.0000 0.0000 0.3536 ( 18458 PWs)   bands (ev):

   -48.9588 -48.9587 -48.9562 -48.9561 -23.2602 -23.2601 -23.2551 -23.2550
   -23.2347 -23.2346 -23.2221 -23.2220 -23.1828 -23.1826 -23.1779 -23.1778
   -22.0786 -22.0786 -22.0510 -22.0510  -6.8183  -6.8183  -6.0469  -6.0468
    -5.8468  -5.8468  -5.8246  -5.8246  -5.5750  -5.5749  -5.5578  -5.5577
    -4.2121  -4.2121  -4.1033  -4.1033  -4.0830  -4.0830  -3.9959  -3.9959
    -3.9638  -3.9638  -3.8391  -3.8391   5.1673   5.1674   5.3742   5.3743
     5.8281   5.8282   6.5368   6.5368   6.5938   6.5938   6.6455   6.6455
     6.8671   6.8671   7.6867   7.6867   7.6890   7.6890   8.3150   8.3150
     8.3268   8.3268   8.4609   8.4610   8.6648   8.6649   9.5280   9.5281
     9.5475   9.5476   9.5724   9.5724   9.5914   9.5914  10.1953  10.1954
    11.7608  11.7609  13.0862  13.0863  13.1157  13.1157  14.6860  14.6861
    14.7630  14.7631  15.2757  15.2758  15.5198  15.5199  16.5277  16.5277
    16.6739  16.6739  16.8516  16.8517  17.3949

     Writing all to output data dir ./out/smo.save/ :
     XML data file, pseudopotentials, collected wavefunctions

     init_run     :      2.08s CPU      2.52s WALL (       1 calls)
     electrons    :     99.65s CPU    114.34s WALL (       1 calls)

     Called by init_run:
     wfcinit      :      0.00s CPU      0.14s WALL (       1 calls)
     wfcinit:atom :      0.02s CPU      0.03s WALL (       1 calls)
     wfcinit:wfcr :      1.79s CPU      1.80s WALL (       1 calls)
     potinit      :      0.37s CPU      0.50s WALL (       1 calls)
     hinit0       :      1.46s CPU      1.53s WALL (       1 calls)

     Called by electrons:
     c_bands      :     99.64s CPU    110.53s WALL (       1 calls)
     v_of_rho     :      0.19s CPU      0.22s WALL (       1 calls)
     v_h          :      0.09s CPU      0.11s WALL (       1 calls)
     v_xc         :      0.10s CPU      0.12s WALL (       1 calls)
     newd         :      0.07s CPU      0.08s WALL (       1 calls)
     PAW_pot      :      0.03s CPU      0.03s WALL (       1 calls)

     Called by c_bands:
     init_us_2    :      0.05s CPU      0.09s WALL (       1 calls)
     cegterg      :     95.31s CPU     95.76s WALL (       6 calls)

     Called by sum_band:

     Called by *egterg:
     cdiaghg      :      1.73s CPU      1.74s WALL (     121 calls)
     cegterg:over :      9.13s CPU      9.18s WALL (     120 calls)
     cegterg:upda :      5.50s CPU      5.54s WALL (     120 calls)
     cegterg:last :     13.47s CPU     13.49s WALL (      45 calls)
     h_psi        :     59.13s CPU     59.37s WALL (     127 calls)
     s_psi        :      6.63s CPU      6.65s WALL (     127 calls)
     g_psi        :      0.23s CPU      0.23s WALL (     120 calls)

     Called by h_psi:
     h_psi:calbec :      6.26s CPU      6.29s WALL (     127 calls)
     vloc_psi     :     46.06s CPU     46.19s WALL (     127 calls)
                                        0.00s GPU  (     127 calls)
     add_vuspsi   :      6.60s CPU      6.61s WALL (     127 calls)

     General routines
     calbec       :      6.26s CPU      6.29s WALL (     127 calls)
     fft          :      0.16s CPU      0.16s WALL (       6 calls)
     ffts         :      0.01s CPU      0.01s WALL (       1 calls)
     fftw         :     41.71s CPU     41.84s WALL (    9584 calls)
     interpolate  :      0.05s CPU      0.07s WALL (       1 calls)
     davcio       :      0.00s CPU      3.87s WALL (       2 calls)

     Parallel routines

     PAW routines
     PAW_pot      :      0.03s CPU      0.03s WALL (       1 calls)

     PWSCF        :   1m42.17s CPU   2m 1.45s WALL


   This run was terminated on:  20:38:17  29Nov2025            

=------------------------------------------------------------------------------=
   JOB DONE.
=------------------------------------------------------------------------------=
