
             +---------------------------------------------------+
             |                                                   |
             |                   WANNIER90                       |
             |                                                   |
             +---------------------------------------------------+
             |                                                   |
             |        Welcome to the Maximally-Localized         |
             |        Generalized Wannier Functions code         |
             |            http://www.wannier.org                 |
             |                                                   |
             |                                                   |
             |  Wannier90 Developer Group:                       |
             |    Giovanni Pizzi    (Paul Scherrer Institute)    |
             |    Valerio Vitale    (University of Trieste)      |
             |    David Vanderbilt  (Rutgers University)         |
             |    Nicola Marzari    (EPFL)                       |
             |    Ivo Souza         (Universidad del Pais Vasco) |
             |    Arash A. Mostofi  (Imperial College London)    |
             |    Jonathan R. Yates (University of Oxford)       |
             |                                                   |
             |  For the full list of Wannier90 3.x authors,      |
             |  please check the code documentation and the      |
             |  README on the GitHub page of the code            |
             |                                                   |
             |                                                   |
             |  Please cite                                      |
             |                                                   |
             |  [ref] "Wannier90 as a community code:            |
             |        new features and applications",            |
             |        G. Pizzi et al., J. Phys. Cond. Matt. 32,  |
             |        165902 (2020).                             |
             |        http://doi.org/10.1088/1361-648X/ab51ff    |
             |                                                   |
             |  in any publications arising from the use of      |
             |  this code. For the method please cite            |
             |                                                   |
             |  [ref] "Maximally Localized Generalised Wannier   |
             |         Functions for Composite Energy Bands"     |
             |         N. Marzari and D. Vanderbilt              |
             |         Phys. Rev. B 56 12847 (1997)              |
             |                                                   |
             |  [ref] "Maximally Localized Wannier Functions     |
             |         for Entangled Energy Bands"               |
             |         I. Souza, N. Marzari and D. Vanderbilt    |
             |         Phys. Rev. B 65 035109 (2001)             |
             |                                                   |
             |                                                   |
             | Copyright (c) 1996-2020                           |
             |        The Wannier90 Developer Group and          |
             |        individual contributors                    |
             |                                                   |
             |      Release: 3.1.0        5th March    2020      |
             |                                                   |
             | This program is free software; you can            |
             | redistribute it and/or modify it under the terms  |
             | of the GNU General Public License as published by |
             | the Free Software Foundation; either version 2 of |
             | the License, or (at your option) any later version|
             |                                                   |
             | This program is distributed in the hope that it   |
             | will be useful, but WITHOUT ANY WARRANTY; without |
             | even the implied warranty of MERCHANTABILITY or   |
             | FITNESS FOR A PARTICULAR PURPOSE. See the GNU     |
             | General Public License for more details.          |
             |                                                   |
             | You should have received a copy of the GNU General|
             | Public License along with this program; if not,   |
             | write to the Free Software Foundation, Inc.,      |
             | 675 Mass Ave, Cambridge, MA 02139, USA.           |
             |                                                   |
             +---------------------------------------------------+
             |    Execution started on 29Nov2025 at 20:40:48     |
             +---------------------------------------------------+
 
 ******************************************************************************
 * -> Using CODATA 2006 constant values                                       *
 *    (http://physics.nist.gov/cuu/Constants/index.html)                      *
 * -> Using Bohr value from CODATA                                            *
 ******************************************************************************

 Running in parallel on 128 CPUs

                                    ------
                                    SYSTEM
                                    ------

                              Lattice Vectors (Ang)
                    a_1     5.613960   0.000000   0.000000
                    a_2     0.000000   5.613960   0.000000
                    a_3     0.000000   0.000000   7.939340

                   Unit Cell Volume:     250.22058  (Ang^3)

                        Reciprocal-Space Vectors (Ang^-1)
                    b_1     1.119207   0.000000   0.000000
                    b_2     0.000000   1.119207   0.000000
                    b_3     0.000000   0.000000   0.791399
  
 *----------------------------------------------------------------------------*
 |   Site       Fractional Coordinate          Cartesian Coordinate (Ang)     |
 +----------------------------------------------------------------------------+
 | sr   1   0.00000   0.50000   0.25000   |    0.00000   2.80698   1.98483    |
 | sr   2   0.00000   0.50000   0.75000   |    0.00000   2.80698   5.95450    |
 | sr   3   0.50000   0.00000   0.75000   |    2.80698   0.00000   5.95450    |
 | sr   4   0.50000   0.00000   0.25000   |    2.80698   0.00000   1.98483    |
 | mo   1   0.00000   0.00000   0.00000   |    0.00000   0.00000   0.00000    |
 | mo   2   0.00000   0.00000   0.50000   |    0.00000   0.00000   3.96967    |
 | mo   3   0.50000   0.50000   0.50000   |    2.80698   2.80698   3.96967    |
 | mo   4   0.50000   0.50000   0.00000   |    2.80698   2.80698   0.00000    |
 | o    1   0.25000   0.75000  -0.01336   |    1.40349   4.21047  -0.10606    |
 | o    2   0.25000   0.25000   0.01336   |    1.40349   1.40349   0.10606    |
 | o    3   0.75000   0.25000   0.48664   |    4.21047   1.40349   3.86361    |
 | o    4   0.75000   0.75000   0.51336   |    4.21047   4.21047   4.07573    |
 | o    5   0.75000   0.25000   0.01336   |    4.21047   1.40349   0.10606    |
 | o    6   0.75000   0.75000  -0.01336   |    4.21047   4.21047  -0.10606    |
 | o    7   0.25000   0.75000   0.51336   |    1.40349   4.21047   4.07573    |
 | o    8   0.25000   0.25000   0.48664   |    1.40349   1.40349   3.86361    |
 | o    9   0.00000  -0.02672   0.25000   |    0.00000  -0.14999   1.98483    |
 | o   10   0.00000   0.02672   0.75000   |    0.00000   0.14999   5.95450    |
 | o   11   0.50000   0.47328   0.75000   |    2.80698   2.65699   5.95450    |
 | o   12   0.50000   0.52672   0.25000   |    2.80698   2.95697   1.98483    |
 *----------------------------------------------------------------------------*
                                -----------
                                PROJECTIONS
                                -----------
  
 +----------------------------------------------------------------------------+
 |     Frac. Coord.   l mr  r        z-axis               x-axis          Z/a |
 +----------------------------------------------------------------------------+
 |  0.00  0.00  0.00  2  2  1  0.000  0.000  1.000  0.707  0.707  0.000   1.0 |
 |  0.00  0.00  0.00  2  3  1  0.000  0.000  1.000  0.707  0.707  0.000   1.0 |
 |  0.00  0.00  0.00  2  5  1  0.000  0.000  1.000  0.707  0.707  0.000   1.0 |
 |  0.00  0.00  0.50  2  2  1  0.000  0.000  1.000  0.707  0.707  0.000   1.0 |
 |  0.00  0.00  0.50  2  3  1  0.000  0.000  1.000  0.707  0.707  0.000   1.0 |
 |  0.00  0.00  0.50  2  5  1  0.000  0.000  1.000  0.707  0.707  0.000   1.0 |
 |  0.50  0.50  0.50  2  2  1  0.000  0.000  1.000  0.707  0.707  0.000   1.0 |
 |  0.50  0.50  0.50  2  3  1  0.000  0.000  1.000  0.707  0.707  0.000   1.0 |
 |  0.50  0.50  0.50  2  5  1  0.000  0.000  1.000  0.707  0.707  0.000   1.0 |
 |  0.50  0.50  0.00  2  2  1  0.000  0.000  1.000  0.707  0.707  0.000   1.0 |
 |  0.50  0.50  0.00  2  3  1  0.000  0.000  1.000  0.707  0.707  0.000   1.0 |
 |  0.50  0.50  0.00  2  5  1  0.000  0.000  1.000  0.707  0.707  0.000   1.0 |
 |  0.00  0.00  0.00  2  1  1  0.000  0.000  1.000  0.707  0.707  0.000   1.0 |
 |  0.00  0.00  0.00  2  4  1  0.000  0.000  1.000  0.707  0.707  0.000   1.0 |
 |  0.00  0.00  0.50  2  1  1  0.000  0.000  1.000  0.707  0.707  0.000   1.0 |
 |  0.00  0.00  0.50  2  4  1  0.000  0.000  1.000  0.707  0.707  0.000   1.0 |
 |  0.50  0.50  0.50  2  1  1  0.000  0.000  1.000  0.707  0.707  0.000   1.0 |
 |  0.50  0.50  0.50  2  4  1  0.000  0.000  1.000  0.707  0.707  0.000   1.0 |
 |  0.50  0.50  0.00  2  1  1  0.000  0.000  1.000  0.707  0.707  0.000   1.0 |
 |  0.50  0.50  0.00  2  4  1  0.000  0.000  1.000  0.707  0.707  0.000   1.0 |
 |  0.25  0.75 -0.01  1  1  1  0.000  0.000  1.000  1.000  0.000  0.000   1.0 |
 |  0.25  0.75 -0.01  1  2  1  0.000  0.000  1.000  1.000  0.000  0.000   1.0 |
 |  0.25  0.75 -0.01  1  3  1  0.000  0.000  1.000  1.000  0.000  0.000   1.0 |
 |  0.25  0.25  0.01  1  1  1  0.000  0.000  1.000  1.000  0.000  0.000   1.0 |
 |  0.25  0.25  0.01  1  2  1  0.000  0.000  1.000  1.000  0.000  0.000   1.0 |
 |  0.25  0.25  0.01  1  3  1  0.000  0.000  1.000  1.000  0.000  0.000   1.0 |
 |  0.75  0.25  0.49  1  1  1  0.000  0.000  1.000  1.000  0.000  0.000   1.0 |
 |  0.75  0.25  0.49  1  2  1  0.000  0.000  1.000  1.000  0.000  0.000   1.0 |
 |  0.75  0.25  0.49  1  3  1  0.000  0.000  1.000  1.000  0.000  0.000   1.0 |
 |  0.75  0.75  0.51  1  1  1  0.000  0.000  1.000  1.000  0.000  0.000   1.0 |
 |  0.75  0.75  0.51  1  2  1  0.000  0.000  1.000  1.000  0.000  0.000   1.0 |
 |  0.75  0.75  0.51  1  3  1  0.000  0.000  1.000  1.000  0.000  0.000   1.0 |
 |  0.75  0.25  0.01  1  1  1  0.000  0.000  1.000  1.000  0.000  0.000   1.0 |
 |  0.75  0.25  0.01  1  2  1  0.000  0.000  1.000  1.000  0.000  0.000   1.0 |
 |  0.75  0.25  0.01  1  3  1  0.000  0.000  1.000  1.000  0.000  0.000   1.0 |
 |  0.75  0.75 -0.01  1  1  1  0.000  0.000  1.000  1.000  0.000  0.000   1.0 |
 |  0.75  0.75 -0.01  1  2  1  0.000  0.000  1.000  1.000  0.000  0.000   1.0 |
 |  0.75  0.75 -0.01  1  3  1  0.000  0.000  1.000  1.000  0.000  0.000   1.0 |
 |  0.25  0.75  0.51  1  1  1  0.000  0.000  1.000  1.000  0.000  0.000   1.0 |
 |  0.25  0.75  0.51  1  2  1  0.000  0.000  1.000  1.000  0.000  0.000   1.0 |
 |  0.25  0.75  0.51  1  3  1  0.000  0.000  1.000  1.000  0.000  0.000   1.0 |
 |  0.25  0.25  0.49  1  1  1  0.000  0.000  1.000  1.000  0.000  0.000   1.0 |
 |  0.25  0.25  0.49  1  2  1  0.000  0.000  1.000  1.000  0.000  0.000   1.0 |
 |  0.25  0.25  0.49  1  3  1  0.000  0.000  1.000  1.000  0.000  0.000   1.0 |
 |  0.00 -0.03  0.25  1  1  1  0.000  0.000  1.000  1.000  0.000  0.000   1.0 |
 |  0.00 -0.03  0.25  1  2  1  0.000  0.000  1.000  1.000  0.000  0.000   1.0 |
 |  0.00 -0.03  0.25  1  3  1  0.000  0.000  1.000  1.000  0.000  0.000   1.0 |
 |  0.00  0.03  0.75  1  1  1  0.000  0.000  1.000  1.000  0.000  0.000   1.0 |
 |  0.00  0.03  0.75  1  2  1  0.000  0.000  1.000  1.000  0.000  0.000   1.0 |
 |  0.00  0.03  0.75  1  3  1  0.000  0.000  1.000  1.000  0.000  0.000   1.0 |
 |  0.50  0.47  0.75  1  1  1  0.000  0.000  1.000  1.000  0.000  0.000   1.0 |
 |  0.50  0.47  0.75  1  2  1  0.000  0.000  1.000  1.000  0.000  0.000   1.0 |
 |  0.50  0.47  0.75  1  3  1  0.000  0.000  1.000  1.000  0.000  0.000   1.0 |
 |  0.50  0.53  0.25  1  1  1  0.000  0.000  1.000  1.000  0.000  0.000   1.0 |
 |  0.50  0.53  0.25  1  2  1  0.000  0.000  1.000  1.000  0.000  0.000   1.0 |
 |  0.50  0.53  0.25  1  3  1  0.000  0.000  1.000  1.000  0.000  0.000   1.0 |
 +----------------------------------------------------------------------------+
  
                                ------------
                                K-POINT GRID
                                ------------
  
             Grid size =  5 x  5 x  5      Total points =  125
  
 *----------------------------------------------------------------------------*
 | k-point      Fractional Coordinate        Cartesian Coordinate (Ang^-1)    |
 +----------------------------------------------------------------------------+
 |     1    0.00000   0.00000   0.00000   |    0.00000   0.00000   0.00000    |
 |     2    0.00000   0.00000   0.20000   |    0.00000   0.00000   0.15828    |
 |     3    0.00000   0.00000   0.40000   |    0.00000   0.00000   0.31656    |
 |     4    0.00000   0.00000   0.60000   |    0.00000   0.00000   0.47484    |
 |     5    0.00000   0.00000   0.80000   |    0.00000   0.00000   0.63312    |
 |     6    0.00000   0.20000   0.00000   |    0.00000   0.22384   0.00000    |
 |     7    0.00000   0.20000   0.20000   |    0.00000   0.22384   0.15828    |
 |     8    0.00000   0.20000   0.40000   |    0.00000   0.22384   0.31656    |
 |     9    0.00000   0.20000   0.60000   |    0.00000   0.22384   0.47484    |
 |    10    0.00000   0.20000   0.80000   |    0.00000   0.22384   0.63312    |
 |    11    0.00000   0.40000   0.00000   |    0.00000   0.44768   0.00000    |
 |    12    0.00000   0.40000   0.20000   |    0.00000   0.44768   0.15828    |
 |    13    0.00000   0.40000   0.40000   |    0.00000   0.44768   0.31656    |
 |    14    0.00000   0.40000   0.60000   |    0.00000   0.44768   0.47484    |
 |    15    0.00000   0.40000   0.80000   |    0.00000   0.44768   0.63312    |
 |    16    0.00000   0.60000   0.00000   |    0.00000   0.67152   0.00000    |
 |    17    0.00000   0.60000   0.20000   |    0.00000   0.67152   0.15828    |
 |    18    0.00000   0.60000   0.40000   |    0.00000   0.67152   0.31656    |
 |    19    0.00000   0.60000   0.60000   |    0.00000   0.67152   0.47484    |
 |    20    0.00000   0.60000   0.80000   |    0.00000   0.67152   0.63312    |
 |    21    0.00000   0.80000   0.00000   |    0.00000   0.89537   0.00000    |
 |    22    0.00000   0.80000   0.20000   |    0.00000   0.89537   0.15828    |
 |    23    0.00000   0.80000   0.40000   |    0.00000   0.89537   0.31656    |
 |    24    0.00000   0.80000   0.60000   |    0.00000   0.89537   0.47484    |
 |    25    0.00000   0.80000   0.80000   |    0.00000   0.89537   0.63312    |
 |    26    0.20000   0.00000   0.00000   |    0.22384   0.00000   0.00000    |
 |    27    0.20000   0.00000   0.20000   |    0.22384   0.00000   0.15828    |
 |    28    0.20000   0.00000   0.40000   |    0.22384   0.00000   0.31656    |
 |    29    0.20000   0.00000   0.60000   |    0.22384   0.00000   0.47484    |
 |    30    0.20000   0.00000   0.80000   |    0.22384   0.00000   0.63312    |
 |    31    0.20000   0.20000   0.00000   |    0.22384   0.22384   0.00000    |
 |    32    0.20000   0.20000   0.20000   |    0.22384   0.22384   0.15828    |
 |    33    0.20000   0.20000   0.40000   |    0.22384   0.22384   0.31656    |
 |    34    0.20000   0.20000   0.60000   |    0.22384   0.22384   0.47484    |
 |    35    0.20000   0.20000   0.80000   |    0.22384   0.22384   0.63312    |
 |    36    0.20000   0.40000   0.00000   |    0.22384   0.44768   0.00000    |
 |    37    0.20000   0.40000   0.20000   |    0.22384   0.44768   0.15828    |
 |    38    0.20000   0.40000   0.40000   |    0.22384   0.44768   0.31656    |
 |    39    0.20000   0.40000   0.60000   |    0.22384   0.44768   0.47484    |
 |    40    0.20000   0.40000   0.80000   |    0.22384   0.44768   0.63312    |
 |    41    0.20000   0.60000   0.00000   |    0.22384   0.67152   0.00000    |
 |    42    0.20000   0.60000   0.20000   |    0.22384   0.67152   0.15828    |
 |    43    0.20000   0.60000   0.40000   |    0.22384   0.67152   0.31656    |
 |    44    0.20000   0.60000   0.60000   |    0.22384   0.67152   0.47484    |
 |    45    0.20000   0.60000   0.80000   |    0.22384   0.67152   0.63312    |
 |    46    0.20000   0.80000   0.00000   |    0.22384   0.89537   0.00000    |
 |    47    0.20000   0.80000   0.20000   |    0.22384   0.89537   0.15828    |
 |    48    0.20000   0.80000   0.40000   |    0.22384   0.89537   0.31656    |
 |    49    0.20000   0.80000   0.60000   |    0.22384   0.89537   0.47484    |
 |    50    0.20000   0.80000   0.80000   |    0.22384   0.89537   0.63312    |
 |    51    0.40000   0.00000   0.00000   |    0.44768   0.00000   0.00000    |
 |    52    0.40000   0.00000   0.20000   |    0.44768   0.00000   0.15828    |
 |    53    0.40000   0.00000   0.40000   |    0.44768   0.00000   0.31656    |
 |    54    0.40000   0.00000   0.60000   |    0.44768   0.00000   0.47484    |
 |    55    0.40000   0.00000   0.80000   |    0.44768   0.00000   0.63312    |
 |    56    0.40000   0.20000   0.00000   |    0.44768   0.22384   0.00000    |
 |    57    0.40000   0.20000   0.20000   |    0.44768   0.22384   0.15828    |
 |    58    0.40000   0.20000   0.40000   |    0.44768   0.22384   0.31656    |
 |    59    0.40000   0.20000   0.60000   |    0.44768   0.22384   0.47484    |
 |    60    0.40000   0.20000   0.80000   |    0.44768   0.22384   0.63312    |
 |    61    0.40000   0.40000   0.00000   |    0.44768   0.44768   0.00000    |
 |    62    0.40000   0.40000   0.20000   |    0.44768   0.44768   0.15828    |
 |    63    0.40000   0.40000   0.40000   |    0.44768   0.44768   0.31656    |
 |    64    0.40000   0.40000   0.60000   |    0.44768   0.44768   0.47484    |
 |    65    0.40000   0.40000   0.80000   |    0.44768   0.44768   0.63312    |
 |    66    0.40000   0.60000   0.00000   |    0.44768   0.67152   0.00000    |
 |    67    0.40000   0.60000   0.20000   |    0.44768   0.67152   0.15828    |
 |    68    0.40000   0.60000   0.40000   |    0.44768   0.67152   0.31656    |
 |    69    0.40000   0.60000   0.60000   |    0.44768   0.67152   0.47484    |
 |    70    0.40000   0.60000   0.80000   |    0.44768   0.67152   0.63312    |
 |    71    0.40000   0.80000   0.00000   |    0.44768   0.89537   0.00000    |
 |    72    0.40000   0.80000   0.20000   |    0.44768   0.89537   0.15828    |
 |    73    0.40000   0.80000   0.40000   |    0.44768   0.89537   0.31656    |
 |    74    0.40000   0.80000   0.60000   |    0.44768   0.89537   0.47484    |
 |    75    0.40000   0.80000   0.80000   |    0.44768   0.89537   0.63312    |
 |    76    0.60000   0.00000   0.00000   |    0.67152   0.00000   0.00000    |
 |    77    0.60000   0.00000   0.20000   |    0.67152   0.00000   0.15828    |
 |    78    0.60000   0.00000   0.40000   |    0.67152   0.00000   0.31656    |
 |    79    0.60000   0.00000   0.60000   |    0.67152   0.00000   0.47484    |
 |    80    0.60000   0.00000   0.80000   |    0.67152   0.00000   0.63312    |
 |    81    0.60000   0.20000   0.00000   |    0.67152   0.22384   0.00000    |
 |    82    0.60000   0.20000   0.20000   |    0.67152   0.22384   0.15828    |
 |    83    0.60000   0.20000   0.40000   |    0.67152   0.22384   0.31656    |
 |    84    0.60000   0.20000   0.60000   |    0.67152   0.22384   0.47484    |
 |    85    0.60000   0.20000   0.80000   |    0.67152   0.22384   0.63312    |
 |    86    0.60000   0.40000   0.00000   |    0.67152   0.44768   0.00000    |
 |    87    0.60000   0.40000   0.20000   |    0.67152   0.44768   0.15828    |
 |    88    0.60000   0.40000   0.40000   |    0.67152   0.44768   0.31656    |
 |    89    0.60000   0.40000   0.60000   |    0.67152   0.44768   0.47484    |
 |    90    0.60000   0.40000   0.80000   |    0.67152   0.44768   0.63312    |
 |    91    0.60000   0.60000   0.00000   |    0.67152   0.67152   0.00000    |
 |    92    0.60000   0.60000   0.20000   |    0.67152   0.67152   0.15828    |
 |    93    0.60000   0.60000   0.40000   |    0.67152   0.67152   0.31656    |
 |    94    0.60000   0.60000   0.60000   |    0.67152   0.67152   0.47484    |
 |    95    0.60000   0.60000   0.80000   |    0.67152   0.67152   0.63312    |
 |    96    0.60000   0.80000   0.00000   |    0.67152   0.89537   0.00000    |
 |    97    0.60000   0.80000   0.20000   |    0.67152   0.89537   0.15828    |
 |    98    0.60000   0.80000   0.40000   |    0.67152   0.89537   0.31656    |
 |    99    0.60000   0.80000   0.60000   |    0.67152   0.89537   0.47484    |
 |   100    0.60000   0.80000   0.80000   |    0.67152   0.89537   0.63312    |
 |   101    0.80000   0.00000   0.00000   |    0.89537   0.00000   0.00000    |
 |   102    0.80000   0.00000   0.20000   |    0.89537   0.00000   0.15828    |
 |   103    0.80000   0.00000   0.40000   |    0.89537   0.00000   0.31656    |
 |   104    0.80000   0.00000   0.60000   |    0.89537   0.00000   0.47484    |
 |   105    0.80000   0.00000   0.80000   |    0.89537   0.00000   0.63312    |
 |   106    0.80000   0.20000   0.00000   |    0.89537   0.22384   0.00000    |
 |   107    0.80000   0.20000   0.20000   |    0.89537   0.22384   0.15828    |
 |   108    0.80000   0.20000   0.40000   |    0.89537   0.22384   0.31656    |
 |   109    0.80000   0.20000   0.60000   |    0.89537   0.22384   0.47484    |
 |   110    0.80000   0.20000   0.80000   |    0.89537   0.22384   0.63312    |
 |   111    0.80000   0.40000   0.00000   |    0.89537   0.44768   0.00000    |
 |   112    0.80000   0.40000   0.20000   |    0.89537   0.44768   0.15828    |
 |   113    0.80000   0.40000   0.40000   |    0.89537   0.44768   0.31656    |
 |   114    0.80000   0.40000   0.60000   |    0.89537   0.44768   0.47484    |
 |   115    0.80000   0.40000   0.80000   |    0.89537   0.44768   0.63312    |
 |   116    0.80000   0.60000   0.00000   |    0.89537   0.67152   0.00000    |
 |   117    0.80000   0.60000   0.20000   |    0.89537   0.67152   0.15828    |
 |   118    0.80000   0.60000   0.40000   |    0.89537   0.67152   0.31656    |
 |   119    0.80000   0.60000   0.60000   |    0.89537   0.67152   0.47484    |
 |   120    0.80000   0.60000   0.80000   |    0.89537   0.67152   0.63312    |
 |   121    0.80000   0.80000   0.00000   |    0.89537   0.89537   0.00000    |
 |   122    0.80000   0.80000   0.20000   |    0.89537   0.89537   0.15828    |
 |   123    0.80000   0.80000   0.40000   |    0.89537   0.89537   0.31656    |
 |   124    0.80000   0.80000   0.60000   |    0.89537   0.89537   0.47484    |
 |   125    0.80000   0.80000   0.80000   |    0.89537   0.89537   0.63312    |
 *----------------------------------------------------------------------------*
  
  
 *---------------------------------- MAIN ------------------------------------*
 |  Number of Wannier Functions               :                56             |
 |  Number of Objective Wannier Functions     :                56             |
 |  Number of input Bloch states              :                56             |
 |  Output verbosity (1=low, 5=high)          :                 2             |
 |  Timing Level (1=low, 5=high)              :                 1             |
 |  Optimisation (0=memory, 3=speed)          :                 3             |
 |  Length Unit                               :               Ang             |
 |  Post-processing setup (write *.nnkp)      :                 F             |
 |  Using Gamma-only branch of algorithms     :                 F             |
 *----------------------------------------------------------------------------*
 *------------------------------- WANNIERISE ---------------------------------*
 |  Total number of iterations                :             10000             |
 |  Number of CG steps before reset           :                 5             |
 |  Trial step length for line search         :             2.000             |
 |  Convergence tolerence                     :         0.100E-11             |
 |  Convergence window                        :                 5             |
 |  Iterations between writing output         :               200             |
 |  Iterations between backing up to disk     :               100             |
 |  Write r^2_nm to file                      :                 F             |
 |  Write xyz WF centres to file              :                 F             |
 |  Write on-site energies <0n|H|0n> to file  :                 F             |
 |  Use guiding centre to control phases      :                 F             |
 |  Use phases for initial projections        :                 F             |
 *----------------------------------------------------------------------------*
 *-------------------------------- PLOTTING ----------------------------------*
 |  Plotting interpolated bandstructure       :                 T             |
 |   Number of K-path sections                :                 7             |
 |   Divisions along first K-path section     :               100             |
 |   Output format                            :           gnuplot             |
 |   Output mode                              :               s-k             |
 *----------------------------------------------------------------------------*
 |   K-space path sections:                                                   |
 |    From: G       0.000  0.000  0.000     To: X       0.000  0.500  0.000   |
 |    From: X       0.000  0.500  0.000     To: M       0.500  0.500  0.000   |
 |    From: M       0.500  0.500  0.000     To: G       0.000  0.000  0.000   |
 |    From: G       0.000  0.000  0.000     To: Z       0.000  0.000  0.500   |
 |    From: Z       0.000  0.000  0.500     To: R       0.000  0.500  0.500   |
 |    From: R       0.000  0.500  0.500     To: A       0.500  0.500  0.500   |
 |    From: A       0.500  0.500  0.500     To: Z       0.000  0.000  0.500   |
 *----------------------------------------------------------------------------*
 |  Plotting Hamiltonian in WF basis          :                 T             |
 *----------------------------------------------------------------------------*

 *---------------------------------- K-MESH ----------------------------------*
 +----------------------------------------------------------------------------+
 |                    Distance to Nearest-Neighbour Shells                    |
 |                    ------------------------------------                    |
 |          Shell             Distance (Ang^-1)          Multiplicity         |
 |          -----             -----------------          ------------         |
 |             1                   0.158280                      2            |
 |             2                   0.223841                      4            |
 |             3                   0.274149                      8            |
 |             4                   0.316560                      6            |
 |             5                   0.353924                      8            |
 |             6                   0.387705                      8            |
 |             7                   0.447683                     12            |
 |             8                   0.474839                     10            |
 |             9                   0.500525                      8            |
 |            10                   0.524955                     24            |
 |            11                   0.548297                      8            |
 |            12                   0.570686                      8            |
 |            13                   0.592229                     16            |
 |            14                   0.633119                      6            |
 |            15                   0.652604                     16            |
 |            16                   0.671524                     12            |
 |            17                   0.689926                     24            |
 |            18                   0.707849                     24            |
 |            19                   0.725329                     16            |
 |            20                   0.742398                      8            |
 |            21                   0.775409                     24            |
 |            22                   0.791399                     10            |
 |            23                   0.807072                     24            |
 |            24                   0.822446                     32            |
 |            25                   0.852363                     24            |
 |            26                   0.866934                     16            |
 |            27                   0.895366                     12            |
 |            28                   0.909248                     16            |
 |            29                   0.922922                     16            |
 |            30                   0.936396                     48            |
 |            31                   0.949679                     30            |
 |            32                   0.962779                      8            |
 |            33                   0.975702                     24            |
 |            34                   1.001049                     24            |
 |            35                   1.013485                     32            |
 |            36                   1.025770                     16            |
 +----------------------------------------------------------------------------+
 | The b-vectors are chosen automatically                                     |
 | Shell:  1 w_b   19.9580947      (Ang^2)                                    |
 | Shell:  1 w_b   19.9580947      (Ang^2)                                    |
 | Shell:  2 w_b    9.9790432      (Ang^2)                                    |
 | The following shells are used:   1,  2                 |
 +----------------------------------------------------------------------------+
 |                        Shell   # Nearest-Neighbours                        |
 |                        -----   --------------------                        |
 |                          1               2                                 |
 |                          2               4                                 |
 +----------------------------------------------------------------------------+
 | Completeness relation is fully satisfied [Eq. (B1), PRB 56, 12847 (1997)]  |
 +----------------------------------------------------------------------------+
 |                  b_k Vectors (Ang^-1) and Weights (Ang^2)                  |
 |                  ----------------------------------------                  |
 |            No.         b_k(x)      b_k(y)      b_k(z)        w_b           |
 |            ---        --------------------------------     --------        |
 |             1         0.000000    0.000000    0.158280    19.958095        |
 |             2         0.000000    0.000000   -0.158280    19.958095        |
 |             3         0.000000    0.223841    0.000000     9.979043        |
 |             4         0.223841    0.000000    0.000000     9.979043        |
 |             5         0.000000   -0.223841    0.000000     9.979043        |
 |             6        -0.223841    0.000000    0.000000     9.979043        |
 +----------------------------------------------------------------------------+
 |                           b_k Directions (Ang^-1)                          |
 |                           -----------------------                          |
 |            No.           x           y           z                         |
 |            ---        --------------------------------                     |
 |             1         0.000000    0.000000    0.158280                     |
 |             2         0.000000    0.223841    0.000000                     |
 |             3         0.223841    0.000000    0.000000                     |
 +----------------------------------------------------------------------------+
  
 Starting a new Wannier90 calculation ...


 Reading overlaps from smo.mmn    :  Created on 29Nov2025 at 20:40:17

 Reading projections from smo.amn :  Created on 29Nov2025 at 20:39:58

 *------------------------------- WANNIERISE ---------------------------------*
 +--------------------------------------------------------------------+<-- CONV
 | Iter  Delta Spread     RMS Gradient      Spread (Ang^2)      Time  |<-- CONV
 +--------------------------------------------------------------------+<-- CONV

 ------------------------------------------------------------------------------
 Initial State
  WF centre and spread    1  (  0.000222,  0.000090,  0.001268 )     2.22885110
  WF centre and spread    2  (  0.000758, -0.000021,  0.000134 )     2.20969129
  WF centre and spread    3  (  0.000010, -0.000020, -0.000004 )     1.47113970
  WF centre and spread    4  (  0.000416,  0.000198,  3.971528 )     2.17746636
  WF centre and spread    5  (  0.000520, -0.000032,  3.970304 )     2.17753672
  WF centre and spread    6  ( -0.000036,  0.000025,  3.969631 )     1.46381841
  WF centre and spread    7  (  2.807465,  2.807100,  3.969775 )     2.18797035
  WF centre and spread    8  (  2.806974,  2.806561,  3.968108 )     2.20212273
  WF centre and spread    9  (  2.806976,  2.807013,  3.969699 )     1.46411824
  WF centre and spread   10  (  2.806828,  2.806613, -0.001204 )     2.21909066
  WF centre and spread   11  (  2.807115,  2.807146, -0.000990 )     2.20165071
  WF centre and spread   12  (  2.807010,  2.806946, -0.000018 )     1.47079536
  WF centre and spread   13  (  0.044804, -0.009320,  0.032796 )    38.55750061
  WF centre and spread   14  (  0.046787,  0.030003, -0.075811 )    38.11267496
  WF centre and spread   15  (  0.038824,  0.021105,  4.035047 )    36.11967771
  WF centre and spread   16  (  0.007533, -0.010511,  4.040283 )    36.85504241
  WF centre and spread   17  (  2.838508,  2.797027,  3.864361 )    37.73086158
  WF centre and spread   18  (  2.797816,  2.817447,  4.071589 )    36.26739748
  WF centre and spread   19  (  2.784384,  2.777827, -0.092623 )    38.10775735
  WF centre and spread   20  (  2.838230,  2.852270,  0.018873 )    37.97066045
  WF centre and spread   21  (  1.403475,  4.210457, -0.122685 )     1.16303315
  WF centre and spread   22  (  1.411545,  4.210813, -0.125278 )     6.87156113
  WF centre and spread   23  (  1.414617,  4.216222, -0.114360 )     6.87510520
  WF centre and spread   24  (  1.403473,  1.403492,  0.122742 )     1.16305600
  WF centre and spread   25  (  1.406580,  1.407399,  0.123608 )     7.12226534
  WF centre and spread   26  (  1.407664,  1.405461,  0.111585 )     7.07893190
  WF centre and spread   27  (  4.210493,  1.403513,  3.848107 )     1.16484121
  WF centre and spread   28  (  4.211085,  1.404043,  3.848232 )     6.78095329
  WF centre and spread   29  (  4.207235,  1.399160,  3.856728 )     6.72528352
  WF centre and spread   30  (  4.210488,  4.210446,  4.091203 )     1.16441090
  WF centre and spread   31  (  4.212199,  4.209801,  4.104773 )     6.75358691
  WF centre and spread   32  (  4.212146,  4.211050,  4.097643 )     6.72312557
  WF centre and spread   33  (  4.210486,  1.403501,  0.122851 )     1.16181561
  WF centre and spread   34  (  4.211252,  1.406441,  0.108113 )     7.04185801
  WF centre and spread   35  (  4.208499,  1.402622,  0.098333 )     6.99268267
  WF centre and spread   36  (  4.210470,  4.210467, -0.122902 )     1.16203353
  WF centre and spread   37  (  4.210383,  4.209884, -0.114281 )     7.19553819
  WF centre and spread   38  (  4.206529,  4.212428, -0.104954 )     7.15837366
  WF centre and spread   39  (  1.403483,  4.210459,  4.091143 )     1.16475607
  WF centre and spread   40  (  1.404172,  4.205810,  4.092520 )     6.75375113
  WF centre and spread   41  (  1.407856,  4.209676,  4.085826 )     6.75442667
  WF centre and spread   42  (  1.403489,  1.403485,  3.848299 )     1.16430314
  WF centre and spread   43  (  1.404768,  1.405946,  3.863354 )     6.69608561
  WF centre and spread   44  (  1.407728,  1.403796,  3.870358 )     6.69578220
  WF centre and spread   45  (  0.015381, -0.154594,  1.993608 )    12.11127808
  WF centre and spread   46  ( -0.000062, -0.150830,  1.984883 )     1.13393941
  WF centre and spread   47  (  0.000037, -0.184210,  1.984853 )     1.16579223
  WF centre and spread   48  (  0.007852,  0.156668,  5.982944 )    12.02010400
  WF centre and spread   49  ( -0.000086,  0.150768,  5.954491 )     1.13358817
  WF centre and spread   50  (  0.000016,  0.184373,  5.954539 )     1.16474546
  WF centre and spread   51  (  2.804709,  2.641967,  5.952307 )    12.20749982
  WF centre and spread   52  (  2.807052,  2.656167,  5.954500 )     1.13234809
  WF centre and spread   53  (  2.806987,  2.622554,  5.954522 )     1.16424126
  WF centre and spread   54  (  2.812728,  2.967138,  1.935929 )    12.15766171
  WF centre and spread   55  (  2.807064,  2.957850,  1.984860 )     1.13278123
  WF centre and spread   56  (  2.806957,  2.991179,  1.984855 )     1.16680564
  Sum of centres and spreads (112.509897,112.332870,135.015992 )   500.41416990

      0     0.500E+03     0.0000000000      500.4141699036       0.00  <-- CONV
        O_D=      7.7292530 O_OD=    331.5868793 O_TOT=    500.4141699 <-- SPRD
 ------------------------------------------------------------------------------
 Cycle:      1
  WF centre and spread    1  (  0.000082,  0.000118,  0.001362 )     2.13346313
  WF centre and spread    2  (  0.000863, -0.000005,  0.000148 )     2.11943427
  WF centre and spread    3  (  0.000024,  0.000001, -0.000020 )     1.44725756
  WF centre and spread    4  (  0.000519,  0.000342,  3.971626 )     2.08352331
  WF centre and spread    5  (  0.000406, -0.000268,  3.970546 )     2.08258638
  WF centre and spread    6  ( -0.000038,  0.000050,  3.969624 )     1.43827399
  WF centre and spread    7  (  2.807413,  2.806937,  3.969765 )     2.10419592
  WF centre and spread    8  (  2.806990,  2.806611,  3.968261 )     2.11550049
  WF centre and spread    9  (  2.806960,  2.807001,  3.969710 )     1.43847405
  WF centre and spread   10  (  2.806800,  2.806673, -0.001386 )     2.13106242
  WF centre and spread   11  (  2.807057,  2.807064, -0.001020 )     2.11976116
  WF centre and spread   12  (  2.807012,  2.806921,  0.000002 )     1.44742710
  WF centre and spread   13  (  0.045676, -0.002928,  0.056661 )    37.69491815
  WF centre and spread   14  (  0.035232,  0.027473, -0.091774 )    37.21745074
  WF centre and spread   15  (  0.037774,  0.017804,  4.038358 )    34.90999094
  WF centre and spread   16  (  0.014844, -0.026993,  4.055834 )    35.77557448
  WF centre and spread   17  (  2.839209,  2.792477,  3.894697 )    36.16970171
  WF centre and spread   18  (  2.795467,  2.816843,  4.092311 )    35.10280450
  WF centre and spread   19  (  2.780969,  2.774331, -0.100089 )    37.60481326
  WF centre and spread   20  (  2.838212,  2.867288,  0.009133 )    37.01291739
  WF centre and spread   21  (  1.403463,  4.210460, -0.123030 )     1.14618548
  WF centre and spread   22  (  1.411661,  4.210218, -0.126091 )     6.33365201
  WF centre and spread   23  (  1.414965,  4.216496, -0.114980 )     6.36058776
  WF centre and spread   24  (  1.403472,  1.403511,  0.123087 )     1.14618938
  WF centre and spread   25  (  1.405938,  1.407642,  0.123474 )     6.56175574
  WF centre and spread   26  (  1.407175,  1.405461,  0.110941 )     6.53118935
  WF centre and spread   27  (  4.210514,  1.403512,  3.847915 )     1.14577744
  WF centre and spread   28  (  4.211177,  1.402893,  3.849651 )     6.22765059
  WF centre and spread   29  (  4.206425,  1.397272,  3.858224 )     6.18096996
  WF centre and spread   30  (  4.210481,  4.210429,  4.091440 )     1.14564753
  WF centre and spread   31  (  4.212963,  4.209528,  4.104918 )     6.19777070
  WF centre and spread   32  (  4.212764,  4.211099,  4.098311 )     6.18246195
  WF centre and spread   33  (  4.210494,  1.403494,  0.123239 )     1.14453388
  WF centre and spread   34  (  4.210618,  1.407215,  0.107139 )     6.51860997
  WF centre and spread   35  (  4.208060,  1.402867,  0.097130 )     6.48654177
  WF centre and spread   36  (  4.210457,  4.210448, -0.123293 )     1.14471570
  WF centre and spread   37  (  4.208941,  4.209969, -0.116247 )     6.59616765
  WF centre and spread   38  (  4.204798,  4.213800, -0.106396 )     6.58546989
  WF centre and spread   39  (  1.403461,  4.210456,  4.091482 )     1.14532864
  WF centre and spread   40  (  1.404076,  4.204963,  4.094029 )     6.18162976
  WF centre and spread   41  (  1.408004,  4.209199,  4.087726 )     6.19506783
  WF centre and spread   42  (  1.403506,  1.403504,  3.848005 )     1.14548529
  WF centre and spread   43  (  1.405145,  1.405834,  3.865267 )     6.13049062
  WF centre and spread   44  (  1.408662,  1.402797,  3.871766 )     6.13975785
  WF centre and spread   45  (  0.015002, -0.156545,  1.995116 )    11.11769966
  WF centre and spread   46  ( -0.000083, -0.151007,  1.984899 )     1.11569735
  WF centre and spread   47  (  0.000033, -0.184445,  1.984903 )     1.14794589
  WF centre and spread   48  (  0.006312,  0.158031,  5.985601 )    11.03405099
  WF centre and spread   49  ( -0.000107,  0.150951,  5.954482 )     1.11507439
  WF centre and spread   50  (  0.000047,  0.184648,  5.954500 )     1.14626739
  WF centre and spread   51  (  2.804726,  2.637049,  5.955675 )    11.43402525
  WF centre and spread   52  (  2.807058,  2.655992,  5.954454 )     1.11352165
  WF centre and spread   53  (  2.806992,  2.622303,  5.954494 )     1.14618060
  WF centre and spread   54  (  2.813636,  2.970264,  1.935168 )    11.37650792
  WF centre and spread   55  (  2.807128,  2.958027,  1.984887 )     1.11376996
  WF centre and spread   56  (  2.806931,  2.991381,  1.984900 )     1.14918390
  Sum of centres and spreads (112.496365,112.317456,135.086536 )   478.73269262

      1    -0.217E+02    13.8442142075      478.7326926163       0.10  <-- CONV
        O_D=      6.1520138 O_OD=    311.4826411 O_TOT=    478.7326926 <-- SPRD
 Delta: O_D= -0.1577239E+01 O_OD= -0.2010424E+02 O_TOT= -0.2168148E+02 <-- DLTA
 ------------------------------------------------------------------------------
 Cycle:    200
  WF centre and spread    1  ( -0.000624, -0.000476, -0.000110 )     1.38200592
  WF centre and spread    2  ( -0.000051,  0.000406, -0.000977 )     1.38021902
  WF centre and spread    3  (  0.000880,  0.000621,  0.000051 )     1.34436144
  WF centre and spread    4  ( -0.000229,  0.000038,  3.969779 )     1.38052783
  WF centre and spread    5  ( -0.000533,  0.000378,  3.969476 )     1.37843234
  WF centre and spread    6  (  0.000320,  0.000313,  3.969624 )     1.33382479
  WF centre and spread    7  (  2.806682,  2.807011,  3.969711 )     1.37694644
  WF centre and spread    8  (  2.806972,  2.807563,  3.968775 )     1.37121143
  WF centre and spread    9  (  2.807626,  2.807612,  3.969692 )     1.33502874
  WF centre and spread   10  (  2.806463,  2.806899,  0.000358 )     1.37607603
  WF centre and spread   11  (  2.806708,  2.807245, -0.000226 )     1.37142681
  WF centre and spread   12  (  2.807659,  2.808005, -0.000206 )     1.34366165
  WF centre and spread   13  (  0.414072,  0.480962,  0.906840 )    31.40888124
  WF centre and spread   14  ( -0.781645, -0.353950,  0.022639 )    22.44511444
  WF centre and spread   15  (  0.348985,  0.406937,  4.116366 )    25.26664055
  WF centre and spread   16  (  0.134366, -0.284339,  3.875600 )    26.50949423
  WF centre and spread   17  (  3.462146,  3.458635,  4.166313 )    29.67750172
  WF centre and spread   18  (  2.663394,  2.810381,  4.003236 )    24.89380943
  WF centre and spread   19  (  3.075858,  2.875541, -0.144251 )    28.12331568
  WF centre and spread   20  (  2.411088,  2.925002, -0.052960 )    22.09587339
  WF centre and spread   21  (  1.403194,  4.210545, -0.123166 )     1.06713518
  WF centre and spread   22  (  1.396672,  4.205877, -0.107603 )     1.37168915
  WF centre and spread   23  (  1.403570,  4.212514, -0.105242 )     1.35783060
  WF centre and spread   24  (  1.403718,  1.403512,  0.124373 )     1.07755359
  WF centre and spread   25  (  1.400785,  1.403805,  0.108784 )     1.35574782
  WF centre and spread   26  (  1.402686,  1.403451,  0.107223 )     1.35562945
  WF centre and spread   27  (  4.210860,  1.403767,  3.848621 )     1.09003473
  WF centre and spread   28  (  4.211912,  1.402308,  3.864515 )     1.34646299
  WF centre and spread   29  (  4.206304,  1.399569,  3.864635 )     1.34636820
  WF centre and spread   30  (  4.210598,  4.210761,  4.092691 )     1.08050750
  WF centre and spread   31  (  4.211186,  4.210719,  4.074898 )     1.35584836
  WF centre and spread   32  (  4.212313,  4.211174,  4.075622 )     1.34511966
  WF centre and spread   33  (  4.210284,  1.403541,  0.128627 )     1.07758199
  WF centre and spread   34  (  4.211866,  1.401312,  0.106508 )     1.36504107
  WF centre and spread   35  (  4.205938,  1.396758,  0.106227 )     1.33222743
  WF centre and spread   36  (  4.210841,  4.210704, -0.126067 )     1.08205077
  WF centre and spread   37  (  4.208690,  4.208969, -0.105459 )     1.35557713
  WF centre and spread   38  (  4.203255,  4.216959, -0.105718 )     1.34384356
  WF centre and spread   39  (  1.404006,  4.210834,  4.101551 )     1.09523182
  WF centre and spread   40  (  1.405257,  4.205888,  4.076197 )     1.34654593
  WF centre and spread   41  (  1.407496,  4.211706,  4.075939 )     1.35977774
  WF centre and spread   42  (  1.403480,  1.403376,  3.841562 )     1.07796040
  WF centre and spread   43  (  1.396325,  1.407699,  3.863266 )     1.36857953
  WF centre and spread   44  (  1.407734,  1.395721,  3.864237 )     1.35777462
  WF centre and spread   45  (  0.007592, -0.123216,  1.985567 )     1.75224282
  WF centre and spread   46  (  0.000750, -0.153586,  1.985271 )     1.05423180
  WF centre and spread   47  ( -0.001863, -0.188480,  1.984696 )     1.06820295
  WF centre and spread   48  (  0.005732,  0.129220,  5.969734 )     1.75189372
  WF centre and spread   49  (  0.001627,  0.154533,  5.953972 )     1.05445978
  WF centre and spread   50  ( -0.000445,  0.190247,  5.954235 )     1.07204448
  WF centre and spread   51  (  2.814803,  2.678161,  5.962857 )     1.78933385
  WF centre and spread   52  (  2.811594,  2.655027,  5.954369 )     1.04999162
  WF centre and spread   53  (  2.807558,  2.623643,  5.954167 )     1.05631026
  WF centre and spread   54  (  2.814234,  2.945821,  1.979201 )     1.78048311
  WF centre and spread   55  (  2.808198,  2.958841,  1.984608 )     1.04213245
  WF centre and spread   56  (  2.805232,  2.990834,  1.984938 )     1.05410147
  Sum of centres and spreads (112.794121,113.377299,136.015569 )   272.63190067

    200    -0.851E-01     3.4569251412      272.6319006705      18.23  <-- CONV
        O_D=      3.3983069 O_OD=    108.1355561 O_TOT=    272.6319007 <-- SPRD
 Delta: O_D=  0.1097983E+00 O_OD= -0.1949130E+00 O_TOT= -0.8511472E-01 <-- DLTA
 ------------------------------------------------------------------------------
 Cycle:    400
  WF centre and spread    1  ( -0.000615, -0.000558, -0.000181 )     1.37805200
  WF centre and spread    2  ( -0.000118,  0.000432, -0.000856 )     1.37624906
  WF centre and spread    3  (  0.000935,  0.000791,  0.000074 )     1.34564741
  WF centre and spread    4  ( -0.000330, -0.000032,  3.969827 )     1.37742800
  WF centre and spread    5  ( -0.000538,  0.000320,  3.969466 )     1.37568371
  WF centre and spread    6  (  0.000390,  0.000402,  3.969603 )     1.33475665
  WF centre and spread    7  (  2.806670,  2.806968,  3.969679 )     1.37347138
  WF centre and spread    8  (  2.806979,  2.807518,  3.968958 )     1.36689357
  WF centre and spread    9  (  2.807640,  2.807751,  3.969710 )     1.33615351
  WF centre and spread   10  (  2.806513,  2.806922,  0.000260 )     1.37224166
  WF centre and spread   11  (  2.806728,  2.807221, -0.000170 )     1.36739619
  WF centre and spread   12  (  2.807725,  2.808104, -0.000155 )     1.34515945
  WF centre and spread   13  (  0.442249,  0.526751,  0.952076 )    31.69976605
  WF centre and spread   14  ( -0.865078, -0.385371,  0.019049 )    21.82464412
  WF centre and spread   15  (  0.376647,  0.437280,  4.091066 )    25.06853323
  WF centre and spread   16  (  0.081749, -0.282500,  3.880735 )    25.57620622
  WF centre and spread   17  (  3.550597,  3.559399,  4.243255 )    30.15501108
  WF centre and spread   18  (  2.606710,  2.801641,  3.985834 )    24.48071204
  WF centre and spread   19  (  3.125498,  2.880807, -0.150615 )    27.57443434
  WF centre and spread   20  (  2.373179,  2.915108, -0.057536 )    20.89599541
  WF centre and spread   21  (  1.403205,  4.210540, -0.123491 )     1.06502001
  WF centre and spread   22  (  1.395987,  4.206591, -0.107584 )     1.35120801
  WF centre and spread   23  (  1.403033,  4.212718, -0.105272 )     1.34053910
  WF centre and spread   24  (  1.403702,  1.403491,  0.124003 )     1.07540868
  WF centre and spread   25  (  1.399749,  1.403034,  0.108567 )     1.33967999
  WF centre and spread   26  (  1.401908,  1.402058,  0.107244 )     1.33668567
  WF centre and spread   27  (  4.210882,  1.403766,  3.848228 )     1.09017246
  WF centre and spread   28  (  4.211702,  1.402182,  3.864440 )     1.32864487
  WF centre and spread   29  (  4.206277,  1.399999,  3.864572 )     1.32758589
  WF centre and spread   30  (  4.210554,  4.210715,  4.092846 )     1.08020805
  WF centre and spread   31  (  4.211141,  4.211434,  4.074792 )     1.34093914
  WF centre and spread   32  (  4.212325,  4.210936,  4.075561 )     1.32799690
  WF centre and spread   33  (  4.210257,  1.403530,  0.127582 )     1.07470592
  WF centre and spread   34  (  4.212695,  1.400594,  0.106112 )     1.34711956
  WF centre and spread   35  (  4.206869,  1.395734,  0.106047 )     1.31616431
  WF centre and spread   36  (  4.210802,  4.210718, -0.125865 )     1.08106809
  WF centre and spread   37  (  4.209105,  4.209576, -0.105414 )     1.33326111
  WF centre and spread   38  (  4.203717,  4.217161, -0.105810 )     1.32334214
  WF centre and spread   39  (  1.403987,  4.210822,  4.100670 )     1.09385550
  WF centre and spread   40  (  1.405413,  4.205806,  4.075982 )     1.32716314
  WF centre and spread   41  (  1.407229,  4.211891,  4.075761 )     1.33886568
  WF centre and spread   42  (  1.403473,  1.403354,  3.842247 )     1.07513013
  WF centre and spread   43  (  1.395587,  1.406860,  3.863213 )     1.35172029
  WF centre and spread   44  (  1.407170,  1.395074,  3.864254 )     1.34108771
  WF centre and spread   45  (  0.006245, -0.123981,  1.984529 )     1.66496983
  WF centre and spread   46  (  0.000534, -0.153445,  1.985229 )     1.05325085
  WF centre and spread   47  ( -0.001989, -0.188128,  1.984646 )     1.06642799
  WF centre and spread   48  (  0.005218,  0.128807,  5.968880 )     1.67218164
  WF centre and spread   49  (  0.001452,  0.154486,  5.954006 )     1.05324336
  WF centre and spread   50  ( -0.000784,  0.189986,  5.954253 )     1.07067779
  WF centre and spread   51  (  2.814281,  2.678088,  5.960842 )     1.70911973
  WF centre and spread   52  (  2.811172,  2.655317,  5.954350 )     1.04837451
  WF centre and spread   53  (  2.807459,  2.623808,  5.954173 )     1.05414940
  WF centre and spread   54  (  2.813325,  2.945199,  1.982694 )     1.69819832
  WF centre and spread   55  (  2.808152,  2.958757,  1.984626 )     1.04052993
  WF centre and spread   56  (  2.805336,  2.990543,  1.984952 )     1.05262275
  Sum of centres and spreads (112.750698,113.506976,136.081943 )   268.81575354

    400     0.677E-01     6.8316762071      268.8157535417      36.44  <-- CONV
        O_D=      3.3169391 O_OD=    104.4007768 O_TOT=    268.8157535 <-- SPRD
 Delta: O_D=  0.7283927E-01 O_OD= -0.5177435E-02 O_TOT=  0.6766183E-01 <-- DLTA
 ------------------------------------------------------------------------------
 Cycle:    600
  WF centre and spread    1  ( -0.000611, -0.000636, -0.000223 )     1.37506133
  WF centre and spread    2  ( -0.000178,  0.000455, -0.000749 )     1.37314223
  WF centre and spread    3  (  0.001020,  0.000950,  0.000108 )     1.34684510
  WF centre and spread    4  ( -0.000422, -0.000114,  3.969844 )     1.37484392
  WF centre and spread    5  ( -0.000529,  0.000255,  3.969451 )     1.37383439
  WF centre and spread    6  (  0.000460,  0.000483,  3.969576 )     1.33577020
  WF centre and spread    7  (  2.806709,  2.806930,  3.969691 )     1.37014442
  WF centre and spread    8  (  2.806988,  2.807445,  3.969139 )     1.36357694
  WF centre and spread    9  (  2.807651,  2.807897,  3.969737 )     1.33739222
  WF centre and spread   10  (  2.806562,  2.806933,  0.000186 )     1.36907504
  WF centre and spread   11  (  2.806724,  2.807198, -0.000102 )     1.36416163
  WF centre and spread   12  (  2.807815,  2.808163, -0.000101 )     1.34673412
  WF centre and spread   13  (  0.436549,  0.567002,  1.028124 )    32.02191561
  WF centre and spread   14  ( -0.953912, -0.425863,  0.013007 )    21.41298266
  WF centre and spread   15  (  0.387233,  0.401672,  4.060132 )    24.82369095
  WF centre and spread   16  (  0.013552, -0.280086,  3.889813 )    24.43774051
  WF centre and spread   17  (  3.653330,  3.645527,  4.355205 )    30.58344781
  WF centre and spread   18  (  2.543570,  2.789113,  3.974398 )    23.92649730
  WF centre and spread   19  (  3.159364,  2.870196, -0.173474 )    26.90421826
  WF centre and spread   20  (  2.343502,  2.907765, -0.071397 )    19.60421093
  WF centre and spread   21  (  1.403219,  4.210523, -0.123660 )     1.06287310
  WF centre and spread   22  (  1.395012,  4.207548, -0.107661 )     1.33307043
  WF centre and spread   23  (  1.402292,  4.213227, -0.105453 )     1.32573814
  WF centre and spread   24  (  1.403688,  1.403462,  0.123660 )     1.07354593
  WF centre and spread   25  (  1.398430,  1.402074,  0.108378 )     1.32665188
  WF centre and spread   26  (  1.401032,  1.400272,  0.107260 )     1.32130432
  WF centre and spread   27  (  4.210901,  1.403750,  3.847802 )     1.09020786
  WF centre and spread   28  (  4.211394,  1.402245,  3.864416 )     1.31584668
  WF centre and spread   29  (  4.206154,  1.400516,  3.864581 )     1.31342412
  WF centre and spread   30  (  4.210501,  4.210652,  4.092961 )     1.07992366
  WF centre and spread   31  (  4.211099,  4.211989,  4.074718 )     1.33094203
  WF centre and spread   32  (  4.212153,  4.210563,  4.075500 )     1.31499730
  WF centre and spread   33  (  4.210239,  1.403528,  0.126586 )     1.07192412
  WF centre and spread   34  (  4.213925,  1.399621,  0.105795 )     1.33112861
  WF centre and spread   35  (  4.208293,  1.394189,  0.105947 )     1.30455993
  WF centre and spread   36  (  4.210770,  4.210721, -0.125646 )     1.08024601
  WF centre and spread   37  (  4.209821,  4.210336, -0.105468 )     1.31386461
  WF centre and spread   38  (  4.204514,  4.217608, -0.105970 )     1.30744876
  WF centre and spread   39  (  1.403925,  4.210796,  4.099587 )     1.09277148
  WF centre and spread   40  (  1.405857,  4.205408,  4.075941 )     1.31360472
  WF centre and spread   41  (  1.407167,  4.211853,  4.075746 )     1.32293135
  WF centre and spread   42  (  1.403438,  1.403344,  3.842845 )     1.07225838
  WF centre and spread   43  (  1.394739,  1.406146,  3.863138 )     1.33988165
  WF centre and spread   44  (  1.406595,  1.394283,  3.864209 )     1.32828332
  WF centre and spread   45  (  0.004980, -0.124971,  1.983021 )     1.58566312
  WF centre and spread   46  (  0.000258, -0.153312,  1.985178 )     1.05199683
  WF centre and spread   47  ( -0.002108, -0.187837,  1.984619 )     1.06476841
  WF centre and spread   48  (  0.004491,  0.128529,  5.968621 )     1.60472866
  WF centre and spread   49  (  0.001103,  0.154503,  5.954060 )     1.05189013
  WF centre and spread   50  ( -0.001127,  0.189668,  5.954285 )     1.06946717
  WF centre and spread   51  (  2.813379,  2.677609,  5.958320 )     1.63863068
  WF centre and spread   52  (  2.810563,  2.655721,  5.954345 )     1.04508430
  WF centre and spread   53  (  2.807343,  2.623924,  5.954199 )     1.05172025
  WF centre and spread   54  (  2.812328,  2.944544,  1.986620 )     1.62812513
  WF centre and spread   55  (  2.808143,  2.958663,  1.984636 )     1.03873689
  WF centre and spread   56  (  2.805488,  2.990193,  1.984986 )     1.05100915
  Sum of centres and spreads (112.635377,113.523171,136.190463 )   264.69453470

    600    -0.753E-02     3.5826184893      264.6945347023      54.85  <-- CONV
        O_D=      3.0698208 O_OD=    100.5266763 O_TOT=    264.6945347 <-- SPRD
 Delta: O_D= -0.5983660E-03 O_OD= -0.6934565E-02 O_TOT= -0.7532931E-02 <-- DLTA
 ------------------------------------------------------------------------------
 Cycle:    800
  WF centre and spread    1  ( -0.000612, -0.000687, -0.000214 )     1.37356324
  WF centre and spread    2  ( -0.000214,  0.000463, -0.000690 )     1.37151876
  WF centre and spread    3  (  0.001092,  0.001043,  0.000142 )     1.34751279
  WF centre and spread    4  ( -0.000468, -0.000174,  3.969823 )     1.37335950
  WF centre and spread    5  ( -0.000516,  0.000214,  3.969433 )     1.37283363
  WF centre and spread    6  (  0.000496,  0.000540,  3.969555 )     1.33656351
  WF centre and spread    7  (  2.806760,  2.806910,  3.969720 )     1.36820442
  WF centre and spread    8  (  2.806991,  2.807384,  3.969237 )     1.36179140
  WF centre and spread    9  (  2.807669,  2.807993,  3.969762 )     1.33828391
  WF centre and spread   10  (  2.806598,  2.806938,  0.000165 )     1.36724480
  WF centre and spread   11  (  2.806700,  2.807194, -0.000043 )     1.36235178
  WF centre and spread   12  (  2.807882,  2.808175, -0.000061 )     1.34774861
  WF centre and spread   13  (  0.437645,  0.584809,  1.103956 )    32.21453455
  WF centre and spread   14  ( -1.015632, -0.449708,  0.005078 )    21.25538725
  WF centre and spread   15  (  0.408865,  0.418884,  4.033820 )    24.87259835
  WF centre and spread   16  ( -0.027926, -0.279039,  3.908373 )    23.50801194
  WF centre and spread   17  (  3.728792,  3.704708,  4.428181 )    30.91816071
  WF centre and spread   18  (  2.500336,  2.773117,  3.974580 )    23.47865833
  WF centre and spread   19  (  3.173992,  2.855645, -0.188276 )    26.42577777
  WF centre and spread   20  (  2.332315,  2.909616, -0.083430 )    18.72455895
  WF centre and spread   21  (  1.403241,  4.210512, -0.123674 )     1.06082379
  WF centre and spread   22  (  1.394145,  4.208420, -0.107731 )     1.32181440
  WF centre and spread   23  (  1.401675,  4.213851, -0.105640 )     1.31678582
  WF centre and spread   24  (  1.403703,  1.403437,  0.123494 )     1.07179672
  WF centre and spread   25  (  1.397425,  1.401268,  0.108243 )     1.31889505
  WF centre and spread   26  (  1.400351,  1.398871,  0.107263 )     1.31237336
  WF centre and spread   27  (  4.210916,  1.403727,  3.847568 )     1.09003900
  WF centre and spread   28  (  4.211046,  1.402457,  3.864379 )     1.30879418
  WF centre and spread   29  (  4.205951,  1.400954,  3.864603 )     1.30522974
  WF centre and spread   30  (  4.210479,  4.210593,  4.092961 )     1.07971268
  WF centre and spread   31  (  4.211052,  4.212208,  4.074734 )     1.32548576
  WF centre and spread   32  (  4.211918,  4.210247,  4.075463 )     1.30684202
  WF centre and spread   33  (  4.210243,  1.403532,  0.125968 )     1.06972099
  WF centre and spread   34  (  4.215001,  1.398800,  0.105611 )     1.32125284
  WF centre and spread   35  (  4.209585,  1.392902,  0.105870 )     1.29843529
  WF centre and spread   36  (  4.210768,  4.210717, -0.125378 )     1.07925106
  WF centre and spread   37  (  4.210540,  4.211033, -0.105547 )     1.30265930
  WF centre and spread   38  (  4.205272,  4.218155, -0.106080 )     1.29920543
  WF centre and spread   39  (  1.403869,  4.210778,  4.098743 )     1.09226150
  WF centre and spread   40  (  1.406314,  4.204907,  4.076030 )     1.30692109
  WF centre and spread   41  (  1.407346,  4.211667,  4.075824 )     1.31376278
  WF centre and spread   42  (  1.403424,  1.403352,  3.843148 )     1.07054196
  WF centre and spread   43  (  1.394111,  1.405696,  3.863109 )     1.33366483
  WF centre and spread   44  (  1.406177,  1.393726,  3.864168 )     1.32021865
  WF centre and spread   45  (  0.004180, -0.125724,  1.982101 )     1.53623670
  WF centre and spread   46  (  0.000084, -0.153252,  1.985134 )     1.05095489
  WF centre and spread   47  ( -0.002196, -0.187721,  1.984603 )     1.06363577
  WF centre and spread   48  (  0.003997,  0.128447,  5.968610 )     1.56539184
  WF centre and spread   49  (  0.000891,  0.154525,  5.954127 )     1.05110185
  WF centre and spread   50  ( -0.001348,  0.189369,  5.954303 )     1.06827896
  WF centre and spread   51  (  2.812646,  2.677069,  5.956211 )     1.59361242
  WF centre and spread   52  (  2.810149,  2.656034,  5.954387 )     1.04280269
  WF centre and spread   53  (  2.807247,  2.623992,  5.954216 )     1.04985276
  WF centre and spread   54  (  2.811611,  2.944059,  1.989510 )     1.58517936
  WF centre and spread   55  (  2.808204,  2.958593,  1.984622 )     1.03747891
  WF centre and spread   56  (  2.805617,  2.989875,  1.985025 )     1.04979143
  Sum of centres and spreads (112.586400,113.561103,136.295091 )   262.03947001

    800    -0.655E-01    13.6779606903      262.0394700089      73.22  <-- CONV
        O_D=      3.0311092 O_OD=     97.9103231 O_TOT=    262.0394700 <-- SPRD
 Delta: O_D= -0.6218824E-01 O_OD= -0.3301044E-02 O_TOT= -0.6548928E-01 <-- DLTA
 ------------------------------------------------------------------------------
 Cycle:   1000
  WF centre and spread    1  ( -0.000610, -0.000721, -0.000182 )     1.37265021
  WF centre and spread    2  ( -0.000238,  0.000463, -0.000653 )     1.37048556
  WF centre and spread    3  (  0.001136,  0.001103,  0.000171 )     1.34782995
  WF centre and spread    4  ( -0.000487, -0.000226,  3.969775 )     1.37230245
  WF centre and spread    5  ( -0.000502,  0.000185,  3.969413 )     1.37227675
  WF centre and spread    6  (  0.000503,  0.000576,  3.969547 )     1.33716694
  WF centre and spread    7  (  2.806807,  2.806904,  3.969733 )     1.36684911
  WF centre and spread    8  (  2.806995,  2.807334,  3.969303 )     1.36062610
  WF centre and spread    9  (  2.807671,  2.808068,  3.969787 )     1.33890420
  WF centre and spread   10  (  2.806629,  2.806950,  0.000152 )     1.36610764
  WF centre and spread   11  (  2.806680,  2.807194, -0.000002 )     1.36135421
  WF centre and spread   12  (  2.807918,  2.808173, -0.000030 )     1.34827165
  WF centre and spread   13  (  0.451854,  0.600082,  1.141693 )    32.39771365
  WF centre and spread   14  ( -1.065660, -0.470382, -0.000923 )    21.22503546
  WF centre and spread   15  (  0.424487,  0.391282,  4.009724 )    24.83489398
  WF centre and spread   16  ( -0.052842, -0.276703,  3.925243 )    22.86357139
  WF centre and spread   17  (  3.811643,  3.720584,  4.499429 )    31.10727157
  WF centre and spread   18  (  2.471095,  2.765755,  3.977562 )    23.07829130
  WF centre and spread   19  (  3.183463,  2.840231, -0.210933 )    26.01215872
  WF centre and spread   20  (  2.329363,  2.917597, -0.086452 )    18.13698658
  WF centre and spread   21  (  1.403268,  4.210507, -0.123663 )     1.05936708
  WF centre and spread   22  (  1.393412,  4.209207, -0.107764 )     1.31389903
  WF centre and spread   23  (  1.401126,  4.214493, -0.105781 )     1.31069045
  WF centre and spread   24  (  1.403724,  1.403421,  0.123410 )     1.07052861
  WF centre and spread   25  (  1.396577,  1.400563,  0.108138 )     1.31375679
  WF centre and spread   26  (  1.399758,  1.397697,  0.107254 )     1.30668943
  WF centre and spread   27  (  4.210930,  1.403708,  3.847509 )     1.09002990
  WF centre and spread   28  (  4.210753,  1.402645,  3.864333 )     1.30338359
  WF centre and spread   29  (  4.205796,  1.401317,  3.864572 )     1.29965389
  WF centre and spread   30  (  4.210473,  4.210549,  4.092905 )     1.07959002
  WF centre and spread   31  (  4.211139,  4.212355,  4.074798 )     1.32058549
  WF centre and spread   32  (  4.211708,  4.210084,  4.075457 )     1.30147453
  WF centre and spread   33  (  4.210259,  1.403536,  0.125515 )     1.06794145
  WF centre and spread   34  (  4.215942,  1.398059,  0.105513 )     1.31439542
  WF centre and spread   35  (  4.210769,  1.391784,  0.105820 )     1.29481508
  WF centre and spread   36  (  4.210774,  4.210718, -0.125114 )     1.07848477
  WF centre and spread   37  (  4.211257,  4.211657, -0.105609 )     1.29488294
  WF centre and spread   38  (  4.205991,  4.218733, -0.106138 )     1.29404816
  WF centre and spread   39  (  1.403831,  4.210759,  4.098057 )     1.09198645
  WF centre and spread   40  (  1.406673,  4.204553,  4.076131 )     1.30193595
  WF centre and spread   41  (  1.407562,  4.211520,  4.075885 )     1.30705269
  WF centre and spread   42  (  1.403430,  1.403360,  3.843350 )     1.06957415
  WF centre and spread   43  (  1.393674,  1.405321,  3.863099 )     1.32893310
  WF centre and spread   44  (  1.405846,  1.393300,  3.864144 )     1.31460131
  WF centre and spread   45  (  0.003665, -0.126405,  1.981347 )     1.50275462
  WF centre and spread   46  ( -0.000033, -0.153196,  1.985095 )     1.05013227
  WF centre and spread   47  ( -0.002247, -0.187672,  1.984596 )     1.06289195
  WF centre and spread   48  (  0.003685,  0.128467,  5.968597 )     1.54042276
  WF centre and spread   49  (  0.000786,  0.154495,  5.954188 )     1.05061481
  WF centre and spread   50  ( -0.001490,  0.189093,  5.954321 )     1.06737268
  WF centre and spread   51  (  2.812075,  2.676613,  5.954285 )     1.56174443
  WF centre and spread   52  (  2.809911,  2.656241,  5.954432 )     1.04161979
  WF centre and spread   53  (  2.807193,  2.624030,  5.954226 )     1.04867658
  WF centre and spread   54  (  2.811094,  2.943711,  1.991982 )     1.55631906
  WF centre and spread   55  (  2.808290,  2.958553,  1.984608 )     1.03673315
  WF centre and spread   56  (  2.805765,  2.989604,  1.985045 )     1.04891145
  Sum of centres and spreads (112.599272,113.527830,136.366902 )   260.06724124

   1000    -0.134E-01     5.8012219656      260.0672412443      91.52  <-- CONV
        O_D=      2.8085735 O_OD=     96.1606301 O_TOT=    260.0672412 <-- SPRD
 Delta: O_D= -0.1288266E-01 O_OD= -0.5346338E-03 O_TOT= -0.1341730E-01 <-- DLTA
 ------------------------------------------------------------------------------
 Cycle:   1200
  WF centre and spread    1  ( -0.000602, -0.000738, -0.000163 )     1.37199234
  WF centre and spread    2  ( -0.000251,  0.000462, -0.000617 )     1.36979455
  WF centre and spread    3  (  0.001167,  0.001148,  0.000194 )     1.34798243
  WF centre and spread    4  ( -0.000495, -0.000248,  3.969712 )     1.37157820
  WF centre and spread    5  ( -0.000483,  0.000146,  3.969411 )     1.37197016
  WF centre and spread    6  (  0.000490,  0.000610,  3.969535 )     1.33783932
  WF centre and spread    7  (  2.806848,  2.806900,  3.969739 )     1.36596365
  WF centre and spread    8  (  2.806991,  2.807302,  3.969341 )     1.35997008
  WF centre and spread    9  (  2.807668,  2.808126,  3.969809 )     1.33943347
  WF centre and spread   10  (  2.806654,  2.806957,  0.000137 )     1.36548904
  WF centre and spread   11  (  2.806660,  2.807192,  0.000020 )     1.36083426
  WF centre and spread   12  (  2.807945,  2.808174, -0.000018 )     1.34863617
  WF centre and spread   13  (  0.467403,  0.611803,  1.179602 )    32.58383481
  WF centre and spread   14  ( -1.108854, -0.480326, -0.004010 )    21.27190345
  WF centre and spread   15  (  0.435635,  0.396482,  3.978912 )    24.89624468
  WF centre and spread   16  ( -0.082995, -0.249766,  3.937162 )    22.33893598
  WF centre and spread   17  (  3.875922,  3.743351,  4.561477 )    31.28873620
  WF centre and spread   18  (  2.447517,  2.753314,  3.980058 )    22.86163705
  WF centre and spread   19  (  3.185072,  2.828709, -0.239277 )    25.72697744
  WF centre and spread   20  (  2.331665,  2.927619, -0.084270 )    17.73633708
  WF centre and spread   21  (  1.403291,  4.210510, -0.123644 )     1.05867618
  WF centre and spread   22  (  1.392700,  4.209991, -0.107774 )     1.30803135
  WF centre and spread   23  (  1.400606,  4.215186, -0.105886 )     1.30667098
  WF centre and spread   24  (  1.403749,  1.403402,  0.123333 )     1.07006984
  WF centre and spread   25  (  1.395837,  1.399933,  0.108061 )     1.30997621
  WF centre and spread   26  (  1.399199,  1.396676,  0.107240 )     1.30275702
  WF centre and spread   27  (  4.210940,  1.403692,  3.847522 )     1.09015886
  WF centre and spread   28  (  4.210218,  1.402958,  3.864290 )     1.30256832
  WF centre and spread   29  (  4.205503,  1.401880,  3.864584 )     1.29727345
  WF centre and spread   30  (  4.210472,  4.210513,  4.092866 )     1.07988720
  WF centre and spread   31  (  4.211138,  4.212414,  4.074794 )     1.32189074
  WF centre and spread   32  (  4.211401,  4.209774,  4.075452 )     1.29918343
  WF centre and spread   33  (  4.210281,  1.403543,  0.125141 )     1.06697170
  WF centre and spread   34  (  4.216870,  1.397354,  0.105462 )     1.30934364
  WF centre and spread   35  (  4.211928,  1.390753,  0.105776 )     1.29251967
  WF centre and spread   36  (  4.210786,  4.210727, -0.124866 )     1.07850842
  WF centre and spread   37  (  4.211976,  4.212299, -0.105662 )     1.28943011
  WF centre and spread   38  (  4.206654,  4.219399, -0.106177 )     1.29077348
  WF centre and spread   39  (  1.403810,  4.210754,  4.097446 )     1.09175699
  WF centre and spread   40  (  1.407108,  4.203950,  4.076184 )     1.30217275
  WF centre and spread   41  (  1.407981,  4.211301,  4.075925 )     1.30502130
  WF centre and spread   42  (  1.403435,  1.403375,  3.843540 )     1.06915949
  WF centre and spread   43  (  1.393332,  1.405160,  3.863039 )     1.32784551
  WF centre and spread   44  (  1.405681,  1.392992,  3.864066 )     1.31143757
  WF centre and spread   45  (  0.003287, -0.126985,  1.980495 )     1.47989687
  WF centre and spread   46  ( -0.000133, -0.153145,  1.985072 )     1.04957311
  WF centre and spread   47  ( -0.002278, -0.187607,  1.984601 )     1.06244236
  WF centre and spread   48  (  0.003456,  0.128528,  5.968811 )     1.52648110
  WF centre and spread   49  (  0.000728,  0.154420,  5.954231 )     1.05022866
  WF centre and spread   50  ( -0.001587,  0.188817,  5.954328 )     1.06654947
  WF centre and spread   51  (  2.811571,  2.676259,  5.952498 )     1.53810636
  WF centre and spread   52  (  2.809718,  2.656383,  5.954476 )     1.04099189
  WF centre and spread   53  (  2.807165,  2.624020,  5.954225 )     1.04812347
  WF centre and spread   54  (  2.810727,  2.943415,  1.994068 )     1.53650724
  WF centre and spread   55  (  2.808371,  2.958531,  1.984593 )     1.03636450
  WF centre and spread   56  (  2.805909,  2.989383,  1.985036 )     1.04859939
  Sum of centres and spreads (112.595786,113.567770,136.419899 )   258.98203900

   1200    -0.198E-01     4.1566839293      258.9820390017     109.84  <-- CONV
        O_D=      2.7935841 O_OD=     95.0904173 O_TOT=    258.9820390 <-- SPRD
 Delta: O_D= -0.1583380E-01 O_OD= -0.3961050E-02 O_TOT= -0.1979485E-01 <-- DLTA
 ------------------------------------------------------------------------------
 Cycle:   1400
  WF centre and spread    1  ( -0.000600, -0.000761, -0.000137 )     1.37158480
  WF centre and spread    2  ( -0.000262,  0.000457, -0.000595 )     1.36917014
  WF centre and spread    3  (  0.001180,  0.001183,  0.000218 )     1.34797036
  WF centre and spread    4  ( -0.000494, -0.000295,  3.969621 )     1.37082261
  WF centre and spread    5  ( -0.000469,  0.000128,  3.969380 )     1.37168553
  WF centre and spread    6  (  0.000453,  0.000639,  3.969537 )     1.33838785
  WF centre and spread    7  (  2.806887,  2.806893,  3.969730 )     1.36512836
  WF centre and spread    8  (  2.806987,  2.807251,  3.969372 )     1.35944540
  WF centre and spread    9  (  2.807634,  2.808182,  3.969826 )     1.33985791
  WF centre and spread   10  (  2.806677,  2.806977,  0.000138 )     1.36481851
  WF centre and spread   11  (  2.806649,  2.807189,  0.000022 )     1.36047171
  WF centre and spread   12  (  2.807948,  2.808160,  0.000003 )     1.34876489
  WF centre and spread   13  (  0.487369,  0.620400,  1.210405 )    32.78819893
  WF centre and spread   14  ( -1.154059, -0.499744, -0.010001 )    21.38395181
  WF centre and spread   15  (  0.453052,  0.382865,  3.975752 )    24.89907131
  WF centre and spread   16  ( -0.097079, -0.266603,  3.948543 )    21.89305734
  WF centre and spread   17  (  3.948461,  3.754503,  4.624137 )    31.45076326
  WF centre and spread   18  (  2.421578,  2.728771,  3.980592 )    22.54485541
  WF centre and spread   19  (  3.183801,  2.816448, -0.247601 )    25.35339720
  WF centre and spread   20  (  2.335665,  2.938161, -0.080814 )    17.40056906
  WF centre and spread   21  (  1.403309,  4.210516, -0.123617 )     1.05725173
  WF centre and spread   22  (  1.391977,  4.210906, -0.107769 )     1.30217125
  WF centre and spread   23  (  1.399979,  4.215950, -0.105980 )     1.30256872
  WF centre and spread   24  (  1.403761,  1.403384,  0.123289 )     1.06877791
  WF centre and spread   25  (  1.395048,  1.399178,  0.107964 )     1.30567160
  WF centre and spread   26  (  1.398560,  1.395596,  0.107213 )     1.29910371
  WF centre and spread   27  (  4.210948,  1.403672,  3.847569 )     1.09021588
  WF centre and spread   28  (  4.209778,  1.403182,  3.864250 )     1.29787815
  WF centre and spread   29  (  4.205261,  1.402213,  3.864496 )     1.29317741
  WF centre and spread   30  (  4.210468,  4.210476,  4.092719 )     1.07957670
  WF centre and spread   31  (  4.211364,  4.212445,  4.074916 )     1.31699816
  WF centre and spread   32  (  4.211164,  4.209762,  4.075479 )     1.29622422
  WF centre and spread   33  (  4.210299,  1.403541,  0.124809 )     1.06512591
  WF centre and spread   34  (  4.217892,  1.396519,  0.105431 )     1.30436017
  WF centre and spread   35  (  4.213160,  1.389654,  0.105744 )     1.29086765
  WF centre and spread   36  (  4.210784,  4.210726, -0.124595 )     1.07756808
  WF centre and spread   37  (  4.212877,  4.213065, -0.105705 )     1.28356722
  WF centre and spread   38  (  4.207513,  4.220139, -0.106191 )     1.28750106
  WF centre and spread   39  (  1.403777,  4.210741,  4.096846 )     1.09148840
  WF centre and spread   40  (  1.407437,  4.203695,  4.076309 )     1.29844192
  WF centre and spread   41  (  1.408221,  4.211016,  4.075982 )     1.30002679
  WF centre and spread   42  (  1.403458,  1.403376,  3.843649 )     1.06855211
  WF centre and spread   43  (  1.392979,  1.404757,  3.863065 )     1.32382283
  WF centre and spread   44  (  1.405360,  1.392626,  3.864060 )     1.30742317
  WF centre and spread   45  (  0.002932, -0.127584,  1.979881 )     1.45727531
  WF centre and spread   46  ( -0.000250, -0.153092,  1.985043 )     1.04895385
  WF centre and spread   47  ( -0.002297, -0.187592,  1.984586 )     1.06198721
  WF centre and spread   48  (  0.003213,  0.128593,  5.968678 )     1.50840190
  WF centre and spread   49  (  0.000686,  0.154315,  5.954269 )     1.04961804
  WF centre and spread   50  ( -0.001658,  0.188521,  5.954334 )     1.06572667
  WF centre and spread   51  (  2.811084,  2.675875,  5.950588 )     1.51547998
  WF centre and spread   52  (  2.809538,  2.656497,  5.954504 )     1.04068367
  WF centre and spread   53  (  2.807153,  2.624003,  5.954234 )     1.04732255
  WF centre and spread   54  (  2.810358,  2.943186,  1.996178 )     1.51814303
  WF centre and spread   55  (  2.808438,  2.958506,  1.984585 )     1.03620736
  WF centre and spread   56  (  2.806055,  2.989178,  1.985034 )     1.04806228
  Sum of centres and spreads (112.622002,113.508348,136.509974 )   257.82819499

   1400    -0.454E-02     5.6136687696      257.8281949904     128.27  <-- CONV
        O_D=      2.7377568 O_OD=     93.9924006 O_TOT=    257.8281950 <-- SPRD
 Delta: O_D= -0.4394251E-03 O_OD= -0.4105096E-02 O_TOT= -0.4544521E-02 <-- DLTA
 ------------------------------------------------------------------------------
 Cycle:   1600
  WF centre and spread    1  ( -0.000592, -0.000765, -0.000127 )     1.37115926
  WF centre and spread    2  ( -0.000275,  0.000458, -0.000562 )     1.36865623
  WF centre and spread    3  (  0.001200,  0.001211,  0.000233 )     1.34795846
  WF centre and spread    4  ( -0.000490, -0.000324,  3.969536 )     1.37032834
  WF centre and spread    5  ( -0.000463,  0.000115,  3.969374 )     1.37148433
  WF centre and spread    6  (  0.000432,  0.000676,  3.969528 )     1.33861618
  WF centre and spread    7  (  2.806914,  2.806889,  3.969718 )     1.36468352
  WF centre and spread    8  (  2.806977,  2.807225,  3.969393 )     1.35910237
  WF centre and spread    9  (  2.807616,  2.808223,  3.969834 )     1.34014551
  WF centre and spread   10  (  2.806695,  2.806995,  0.000150 )     1.36445433
  WF centre and spread   11  (  2.806637,  2.807189,  0.000019 )     1.36029004
  WF centre and spread   12  (  2.807966,  2.808149,  0.000012 )     1.34876208
  WF centre and spread   13  (  0.512527,  0.622030,  1.232775 )    32.91995789
  WF centre and spread   14  ( -1.196469, -0.503140, -0.016213 )    21.49338036
  WF centre and spread   15  (  0.473245,  0.367154,  3.958090 )    24.92408915
  WF centre and spread   16  ( -0.113423, -0.267840,  3.957470 )    21.50122617
  WF centre and spread   17  (  4.008604,  3.778623,  4.682634 )    31.51260089
  WF centre and spread   18  (  2.398086,  2.717550,  3.983480 )    22.41470924
  WF centre and spread   19  (  3.179064,  2.805648, -0.262319 )    25.04510824
  WF centre and spread   20  (  2.340972,  2.948462, -0.076852 )    17.14505008
  WF centre and spread   21  (  1.403319,  4.210526, -0.123595 )     1.05637547
  WF centre and spread   22  (  1.391295,  4.211717, -0.107766 )     1.29808495
  WF centre and spread   23  (  1.399396,  4.216690, -0.106042 )     1.29908499
  WF centre and spread   24  (  1.403770,  1.403373,  0.123241 )     1.06792781
  WF centre and spread   25  (  1.394368,  1.398548,  0.107889 )     1.30265597
  WF centre and spread   26  (  1.397967,  1.394727,  0.107189 )     1.29620926
  WF centre and spread   27  (  4.210956,  1.403663,  3.847627 )     1.09033071
  WF centre and spread   28  (  4.209249,  1.403508,  3.864220 )     1.29585717
  WF centre and spread   29  (  4.204928,  1.402694,  3.864458 )     1.29097182
  WF centre and spread   30  (  4.210463,  4.210447,  4.092613 )     1.07953396
  WF centre and spread   31  (  4.211549,  4.212444,  4.074969 )     1.31524844
  WF centre and spread   32  (  4.210872,  4.209657,  4.075513 )     1.29368758
[...]
  WF centre and spread   13  (  2.506195,  0.496685,  1.688591 )    32.56444829
  WF centre and spread   14  ( -2.815925, -0.380073, -0.337955 )    21.56082169
  WF centre and spread   15  (  0.262983,  0.073206,  2.831534 )    25.24065538
  WF centre and spread   16  ( -0.117223, -0.089020,  3.937150 )    18.05163979
  WF centre and spread   17  (  5.407613,  3.264762,  6.087829 )    26.83730455
  WF centre and spread   18  (  1.691529,  1.675536,  3.901980 )    18.66104164
  WF centre and spread   19  (  2.860728,  2.813530, -0.008497 )    19.94893038
  WF centre and spread   20  (  2.824430,  2.880628,  0.003986 )    12.15931797
  WF centre and spread   21  (  1.403509,  4.210586, -0.121537 )     1.05657684
  WF centre and spread   22  (  1.366818,  4.243836, -0.106653 )     1.31967523
  WF centre and spread   23  (  1.371039,  4.245662, -0.106231 )     1.32183921
  WF centre and spread   24  (  1.403466,  1.403358,  0.120215 )     1.05836561
  WF centre and spread   25  (  1.372911,  1.375384,  0.107397 )     1.32618302
  WF centre and spread   26  (  1.373664,  1.375700,  0.106960 )     1.31839979
  WF centre and spread   27  (  4.210709,  1.403811,  3.850065 )     1.07714117
  WF centre and spread   28  (  4.194515,  1.414622,  3.862916 )     1.27712075
  WF centre and spread   29  (  4.198516,  1.415822,  3.863127 )     1.28383410
  WF centre and spread   30  (  4.210398,  4.210165,  4.092569 )     1.07637491
  WF centre and spread   31  (  4.216356,  4.214976,  4.076183 )     1.30710417
  WF centre and spread   32  (  4.208196,  4.214520,  4.075517 )     1.30307863
  WF centre and spread   33  (  4.210477,  1.403557,  0.122376 )     1.05585146
  WF centre and spread   34  (  4.246141,  1.371766,  0.106243 )     1.32714054
  WF centre and spread   35  (  4.246105,  1.364186,  0.105890 )     1.33185984
  WF centre and spread   36  (  4.210524,  4.210474, -0.123701 )     1.06781479
  WF centre and spread   37  (  4.246081,  4.248936, -0.106473 )     1.32495496
  WF centre and spread   38  (  4.245851,  4.251469, -0.106198 )     1.32795749
  WF centre and spread   39  (  1.403549,  4.210621,  4.091840 )     1.07841734
  WF centre and spread   40  (  1.417973,  4.199251,  4.076820 )     1.28850261
  WF centre and spread   41  (  1.415891,  4.195296,  4.076296 )     1.27760690
  WF centre and spread   42  (  1.403450,  1.403436,  3.848206 )     1.06789639
  WF centre and spread   43  (  1.388651,  1.396842,  3.862950 )     1.24143941
  WF centre and spread   44  (  1.396255,  1.387276,  3.863477 )     1.23564132
  WF centre and spread   45  (  0.000490, -0.132400,  1.957989 )     1.45874090
  WF centre and spread   46  ( -0.002105, -0.152077,  1.984963 )     1.04311902
  WF centre and spread   47  ( -0.000306, -0.184451,  1.985096 )     1.04570020
  WF centre and spread   48  (  0.001616,  0.133772,  5.981619 )     1.50802309
  WF centre and spread   49  ( -0.000231,  0.151453,  5.954785 )     1.03398552
  WF centre and spread   50  ( -0.000278,  0.185033,  5.954551 )     1.06363276
  WF centre and spread   51  (  2.807180,  2.671922,  5.908360 )     1.50902382
  WF centre and spread   52  (  2.807743,  2.656834,  5.954463 )     1.04341601
  WF centre and spread   53  (  2.808057,  2.625346,  5.954462 )     1.03990170
  WF centre and spread   54  (  2.807657,  2.942640,  2.031248 )     1.50910705
  WF centre and spread   55  (  2.808186,  2.958789,  1.984669 )     1.03348400
  WF centre and spread   56  (  2.807977,  2.987919,  1.984959 )     1.05136404
  Sum of centres and spreads (113.669109,111.800307,137.196733 )   235.10296898

   9600    -0.161E-01     3.4433919341      235.1029689796     878.03  <-- CONV
        O_D=      1.9934696 O_OD=     72.0114617 O_TOT=    235.1029690 <-- SPRD
 Delta: O_D=  0.2078115E-02 O_OD= -0.1822426E-01 O_TOT= -0.1614615E-01 <-- DLTA
 ------------------------------------------------------------------------------
 Cycle:   9800
  WF centre and spread    1  ( -0.000411, -0.000504, -0.000404 )     1.37399424
  WF centre and spread    2  ( -0.000109,  0.000032,  0.000117 )     1.36793083
  WF centre and spread    3  (  0.000950,  0.001699,  0.000317 )     1.35044561
  WF centre and spread    4  ( -0.000144, -0.000354,  3.968988 )     1.37285430
  WF centre and spread    5  ( -0.000125, -0.000040,  3.970135 )     1.37345538
  WF centre and spread    6  ( -0.000768,  0.002156,  3.969351 )     1.35242999
  WF centre and spread    7  (  2.807025,  2.806860,  3.969627 )     1.37199708
  WF centre and spread    8  (  2.807081,  2.806767,  3.969477 )     1.36851357
  WF centre and spread    9  (  2.806171,  2.809188,  3.970035 )     1.35056538
  WF centre and spread   10  (  2.807308,  2.807190,  0.000063 )     1.36950931
  WF centre and spread   11  (  2.807007,  2.806825, -0.000403 )     1.36933823
  WF centre and spread   12  (  2.807611,  2.808927, -0.000446 )     1.35520020
  WF centre and spread   13  (  2.536396,  0.494894,  1.691856 )    32.55145953
  WF centre and spread   14  ( -2.833751, -0.361662, -0.340876 )    21.50321071
  WF centre and spread   15  (  0.260827,  0.062553,  2.800965 )    25.28365206
  WF centre and spread   16  ( -0.116838, -0.090343,  3.938268 )    18.06987087
  WF centre and spread   17  (  5.412390,  3.265847,  6.089897 )    26.72493590
  WF centre and spread   18  (  1.666479,  1.647983,  3.901691 )    18.58570489
  WF centre and spread   19  (  2.862058,  2.817612, -0.002615 )    19.97877105
  WF centre and spread   20  (  2.826190,  2.879102,  0.003932 )    12.13837049
  WF centre and spread   21  (  1.403500,  4.210593, -0.121561 )     1.05695859
  WF centre and spread   22  (  1.366656,  4.244086, -0.106650 )     1.32025381
  WF centre and spread   23  (  1.370867,  4.245796, -0.106226 )     1.32277116
  WF centre and spread   24  (  1.403462,  1.403351,  0.120146 )     1.05913308
  WF centre and spread   25  (  1.372886,  1.375222,  0.107391 )     1.32659724
  WF centre and spread   26  (  1.373477,  1.375615,  0.106942 )     1.31867923
  WF centre and spread   27  (  4.210695,  1.403831,  3.850052 )     1.07773431
  WF centre and spread   28  (  4.194503,  1.414703,  3.862902 )     1.27552999
  WF centre and spread   29  (  4.198474,  1.415962,  3.863102 )     1.28348512
  WF centre and spread   30  (  4.210386,  4.210154,  4.092638 )     1.07686892
  WF centre and spread   31  (  4.216277,  4.215002,  4.076179 )     1.30620251
  WF centre and spread   32  (  4.208195,  4.214508,  4.075516 )     1.30272229
  WF centre and spread   33  (  4.210473,  1.403571,  0.122336 )     1.05628587
  WF centre and spread   34  (  4.246254,  1.371655,  0.106263 )     1.32766575
  WF centre and spread   35  (  4.246283,  1.364179,  0.105884 )     1.33270594
  WF centre and spread   36  (  4.210520,  4.210454, -0.123757 )     1.06826945
  WF centre and spread   37  (  4.246321,  4.249227, -0.106490 )     1.32576587
  WF centre and spread   38  (  4.246092,  4.251733, -0.106182 )     1.32880396
  WF centre and spread   39  (  1.403555,  4.210613,  4.091801 )     1.07918671
  WF centre and spread   40  (  1.417983,  4.199261,  4.076797 )     1.28665490
  WF centre and spread   41  (  1.416055,  4.195265,  4.076286 )     1.27694679
  WF centre and spread   42  (  1.403446,  1.403432,  3.848301 )     1.06838330
  WF centre and spread   43  (  1.388785,  1.396812,  3.862958 )     1.23922502
  WF centre and spread   44  (  1.396125,  1.387305,  3.863484 )     1.23436792
  WF centre and spread   45  (  0.000500, -0.132441,  1.957374 )     1.45995883
  WF centre and spread   46  ( -0.002069, -0.152031,  1.984959 )     1.04288169
  WF centre and spread   47  ( -0.000302, -0.184359,  1.985092 )     1.04641443
  WF centre and spread   48  (  0.001648,  0.133838,  5.981938 )     1.51594984
  WF centre and spread   49  ( -0.000235,  0.151465,  5.954779 )     1.03388070
  WF centre and spread   50  ( -0.000258,  0.185043,  5.954560 )     1.06438555
  WF centre and spread   51  (  2.807171,  2.671913,  5.908399 )     1.50866802
  WF centre and spread   52  (  2.807753,  2.656828,  5.954460 )     1.04355964
  WF centre and spread   53  (  2.808077,  2.625350,  5.954464 )     1.03999955
  WF centre and spread   54  (  2.807646,  2.942674,  2.031287 )     1.50747183
  WF centre and spread   55  (  2.808130,  2.958822,  1.984653 )     1.03385847
  WF centre and spread   56  (  2.808003,  2.987996,  1.984967 )     1.05146316
  Sum of centres and spreads (113.662682,111.782162,137.175020 )   234.91189902

   9800    -0.225E-01     7.5709947173      234.9118990259     896.47  <-- CONV
        O_D=      1.9721514 O_OD=     71.8417100 O_TOT=    234.9118990 <-- SPRD
 Delta: O_D= -0.1039735E-01 O_OD= -0.1211638E-01 O_TOT= -0.2251372E-01 <-- DLTA
 ------------------------------------------------------------------------------
 Cycle:  10000
  WF centre and spread    1  ( -0.000331, -0.000440, -0.000417 )     1.37672951
  WF centre and spread    2  ( -0.000055, -0.000017,  0.000106 )     1.37026700
  WF centre and spread    3  (  0.000941,  0.001701,  0.000306 )     1.35125329
  WF centre and spread    4  ( -0.000083, -0.000304,  3.968970 )     1.37487465
  WF centre and spread    5  ( -0.000061, -0.000087,  3.970132 )     1.37593160
  WF centre and spread    6  ( -0.000808,  0.002176,  3.969352 )     1.35355930
  WF centre and spread    7  (  2.807086,  2.806912,  3.969604 )     1.37469723
  WF centre and spread    8  (  2.807118,  2.806740,  3.969445 )     1.37077844
  WF centre and spread    9  (  2.806150,  2.809195,  3.970028 )     1.35187267
  WF centre and spread   10  (  2.807364,  2.807241,  0.000049 )     1.37177379
  WF centre and spread   11  (  2.807069,  2.806779, -0.000430 )     1.37167289
  WF centre and spread   12  (  2.807603,  2.808940, -0.000453 )     1.35618867
  WF centre and spread   13  (  2.581464,  0.506151,  1.688834 )    32.49195155
  WF centre and spread   14  ( -2.840891, -0.344580, -0.345708 )    21.46116951
  WF centre and spread   15  (  0.240503,  0.070151,  2.811471 )    25.32995207
  WF centre and spread   16  ( -0.112381, -0.088450,  3.936308 )    18.10568822
  WF centre and spread   17  (  5.415959,  3.264307,  6.097091 )    26.67966296
  WF centre and spread   18  (  1.642801,  1.633179,  3.899605 )    18.56250165
  WF centre and spread   19  (  2.859796,  2.824316, -0.011376 )    19.99375486
  WF centre and spread   20  (  2.828281,  2.877804,  0.004515 )    12.11198018
  WF centre and spread   21  (  1.403519,  4.210585, -0.121445 )     1.05713854
  WF centre and spread   22  (  1.366447,  4.244428, -0.106632 )     1.32142030
  WF centre and spread   23  (  1.370671,  4.246025, -0.106226 )     1.32403993
  WF centre and spread   24  (  1.403471,  1.403362,  0.120233 )     1.05906989
  WF centre and spread   25  (  1.372813,  1.375003,  0.107411 )     1.32755568
  WF centre and spread   26  (  1.373227,  1.375500,  0.106953 )     1.32033960
  WF centre and spread   27  (  4.210715,  1.403827,  3.849983 )     1.07740022
  WF centre and spread   28  (  4.194106,  1.414973,  3.862892 )     1.27845481
  WF centre and spread   29  (  4.198285,  1.416326,  3.863075 )     1.28516128
  WF centre and spread   30  (  4.210400,  4.210156,  4.092744 )     1.07685153
  WF centre and spread   31  (  4.216216,  4.214979,  4.076196 )     1.30832721
  WF centre and spread   32  (  4.208240,  4.214530,  4.075532 )     1.30497760
  WF centre and spread   33  (  4.210493,  1.403561,  0.122342 )     1.05632627
  WF centre and spread   34  (  4.246396,  1.371472,  0.106276 )     1.32873490
  WF centre and spread   35  (  4.246437,  1.364095,  0.105891 )     1.33387966
  WF centre and spread   36  (  4.210522,  4.210460, -0.123602 )     1.06816872
  WF centre and spread   37  (  4.246637,  4.249561, -0.106494 )     1.32760162
  WF centre and spread   38  (  4.246366,  4.252040, -0.106177 )     1.33087611
  WF centre and spread   39  (  1.403558,  4.210595,  4.091723 )     1.07868145
  WF centre and spread   40  (  1.418199,  4.199044,  4.076783 )     1.28917214
  WF centre and spread   41  (  1.416323,  4.195076,  4.076280 )     1.27870763
  WF centre and spread   42  (  1.403447,  1.403447,  3.848327 )     1.06853832
  WF centre and spread   43  (  1.388777,  1.396744,  3.862965 )     1.23908902
  WF centre and spread   44  (  1.395830,  1.387207,  3.863495 )     1.23489330
  WF centre and spread   45  (  0.000500, -0.132470,  1.957070 )     1.46259927
  WF centre and spread   46  ( -0.002011, -0.151985,  1.984970 )     1.04289693
  WF centre and spread   47  ( -0.000296, -0.184230,  1.985099 )     1.04643750
  WF centre and spread   48  (  0.001631,  0.133917,  5.982414 )     1.51601358
  WF centre and spread   49  ( -0.000242,  0.151465,  5.954793 )     1.03403076
  WF centre and spread   50  ( -0.000263,  0.185008,  5.954570 )     1.06437735
  WF centre and spread   51  (  2.807155,  2.671892,  5.907983 )     1.51116295
  WF centre and spread   52  (  2.807732,  2.656853,  5.954471 )     1.04369028
  WF centre and spread   53  (  2.808045,  2.625381,  5.954469 )     1.04007798
  WF centre and spread   54  (  2.807633,  2.942673,  2.031830 )     1.50961002
  WF centre and spread   55  (  2.808091,  2.958871,  1.984681 )     1.03401298
  WF centre and spread   56  (  2.807996,  2.988110,  1.984972 )     1.05149425
  Sum of centres and spreads (113.664585,111.810195,137.173277 )   234.86806962

  10000    -0.150E-01    12.4406069599      234.8680696259     914.48  <-- CONV
        O_D=      2.0070090 O_OD=     71.7630230 O_TOT=    234.8680696 <-- SPRD
 Delta: O_D= -0.9965946E-02 O_OD= -0.5012246E-02 O_TOT= -0.1497819E-01 <-- DLTA
 ------------------------------------------------------------------------------
 Final State
  WF centre and spread    1  ( -0.000331, -0.000440, -0.000417 )     1.37672951
  WF centre and spread    2  ( -0.000055, -0.000017,  0.000106 )     1.37026700
  WF centre and spread    3  (  0.000941,  0.001701,  0.000306 )     1.35125329
  WF centre and spread    4  ( -0.000083, -0.000304,  3.968970 )     1.37487465
  WF centre and spread    5  ( -0.000061, -0.000087,  3.970132 )     1.37593160
  WF centre and spread    6  ( -0.000808,  0.002176,  3.969352 )     1.35355930
  WF centre and spread    7  (  2.807086,  2.806912,  3.969604 )     1.37469723
  WF centre and spread    8  (  2.807118,  2.806740,  3.969445 )     1.37077844
  WF centre and spread    9  (  2.806150,  2.809195,  3.970028 )     1.35187267
  WF centre and spread   10  (  2.807364,  2.807241,  0.000049 )     1.37177379
  WF centre and spread   11  (  2.807069,  2.806779, -0.000430 )     1.37167289
  WF centre and spread   12  (  2.807603,  2.808940, -0.000453 )     1.35618867
  WF centre and spread   13  (  2.581464,  0.506151,  1.688834 )    32.49195155
  WF centre and spread   14  ( -2.840891, -0.344580, -0.345708 )    21.46116951
  WF centre and spread   15  (  0.240503,  0.070151,  2.811471 )    25.32995207
  WF centre and spread   16  ( -0.112381, -0.088450,  3.936308 )    18.10568822
  WF centre and spread   17  (  5.415959,  3.264307,  6.097091 )    26.67966296
  WF centre and spread   18  (  1.642801,  1.633179,  3.899605 )    18.56250165
  WF centre and spread   19  (  2.859796,  2.824316, -0.011376 )    19.99375486
  WF centre and spread   20  (  2.828281,  2.877804,  0.004515 )    12.11198018
  WF centre and spread   21  (  1.403519,  4.210585, -0.121445 )     1.05713854
  WF centre and spread   22  (  1.366447,  4.244428, -0.106632 )     1.32142030
  WF centre and spread   23  (  1.370671,  4.246025, -0.106226 )     1.32403993
  WF centre and spread   24  (  1.403471,  1.403362,  0.120233 )     1.05906989
  WF centre and spread   25  (  1.372813,  1.375003,  0.107411 )     1.32755568
  WF centre and spread   26  (  1.373227,  1.375500,  0.106953 )     1.32033960
  WF centre and spread   27  (  4.210715,  1.403827,  3.849983 )     1.07740022
  WF centre and spread   28  (  4.194106,  1.414973,  3.862892 )     1.27845481
  WF centre and spread   29  (  4.198285,  1.416326,  3.863075 )     1.28516128
  WF centre and spread   30  (  4.210400,  4.210156,  4.092744 )     1.07685153
  WF centre and spread   31  (  4.216216,  4.214979,  4.076196 )     1.30832721
  WF centre and spread   32  (  4.208240,  4.214530,  4.075532 )     1.30497760
  WF centre and spread   33  (  4.210493,  1.403561,  0.122342 )     1.05632627
  WF centre and spread   34  (  4.246396,  1.371472,  0.106276 )     1.32873490
  WF centre and spread   35  (  4.246437,  1.364095,  0.105891 )     1.33387966
  WF centre and spread   36  (  4.210522,  4.210460, -0.123602 )     1.06816872
  WF centre and spread   37  (  4.246637,  4.249561, -0.106494 )     1.32760162
  WF centre and spread   38  (  4.246366,  4.252040, -0.106177 )     1.33087611
  WF centre and spread   39  (  1.403558,  4.210595,  4.091723 )     1.07868145
  WF centre and spread   40  (  1.418199,  4.199044,  4.076783 )     1.28917214
  WF centre and spread   41  (  1.416323,  4.195076,  4.076280 )     1.27870763
  WF centre and spread   42  (  1.403447,  1.403447,  3.848327 )     1.06853832
  WF centre and spread   43  (  1.388777,  1.396744,  3.862965 )     1.23908902
  WF centre and spread   44  (  1.395830,  1.387207,  3.863495 )     1.23489330
  WF centre and spread   45  (  0.000500, -0.132470,  1.957070 )     1.46259927
  WF centre and spread   46  ( -0.002011, -0.151985,  1.984970 )     1.04289693
  WF centre and spread   47  ( -0.000296, -0.184230,  1.985099 )     1.04643750
  WF centre and spread   48  (  0.001631,  0.133917,  5.982414 )     1.51601358
  WF centre and spread   49  ( -0.000242,  0.151465,  5.954793 )     1.03403076
  WF centre and spread   50  ( -0.000263,  0.185008,  5.954570 )     1.06437735
  WF centre and spread   51  (  2.807155,  2.671892,  5.907983 )     1.51116295
  WF centre and spread   52  (  2.807732,  2.656853,  5.954471 )     1.04369028
  WF centre and spread   53  (  2.808045,  2.625381,  5.954469 )     1.04007798
  WF centre and spread   54  (  2.807633,  2.942673,  2.031830 )     1.50961002
  WF centre and spread   55  (  2.808091,  2.958871,  1.984681 )     1.03401298
  WF centre and spread   56  (  2.807996,  2.988110,  1.984972 )     1.05149425
  Sum of centres and spreads (113.664585,111.810195,137.173277 )   234.86806962

         Spreads (Ang^2)       Omega I      =   161.098037658
        ================       Omega D      =     2.007008968
                               Omega OD     =    71.763023000
    Final Spread (Ang^2)       Omega Total  =   234.868069626
 ------------------------------------------------------------------------------

 Writing checkpoint file smo.chk... done

 *---------------------------------------------------------------------------*
 |                               PLOTTING                                    |
 *---------------------------------------------------------------------------*


 Calculating interpolated band-structure

 Time to calculate interpolated band structure       2.133 (sec)

  
  Omega Invariant:   1-s^2 =   161.098037657 (Ang^2)
                   -2log s =  1282.458480557 (Ang^2)
                    acos^2 =   267.299957733 (Ang^2)

 *===========================================================================*
 |                             TIMING INFORMATION                            |
 *===========================================================================*
 |    Tag                                                Ncalls      Time (s)|
 |---------------------------------------------------------------------------|
 |kmesh: get                                        :         1         0.114|
 |overlap: read                                     :         1         4.479|
 |wann: main                                        :         1       912.586|
 |plot: main                                        :         1         6.270|
 *---------------------------------------------------------------------------*
 All done: wannier90 exiting
