
     Program PWSCF v.7.3 starts on 19Dec2025 at 11: 5:28 

     This program is part of the open-source Quantum ESPRESSO suite
     for quantum simulation of materials; please cite
         "P. Giannozzi et al., J. Phys.:Condens. Matter 21 395502 (2009);
         "P. Giannozzi et al., J. Phys.:Condens. Matter 29 465901 (2017);
         "P. Giannozzi et al., J. Chem. Phys. 152 154105 (2020);
          URL http://www.quantum-espresso.org", 
     in publications or presentations arising from this work. More details at
     http://www.quantum-espresso.org/quote

     Parallel version (MPI), running on    32 processors

     MPI processes distributed on     1 nodes
     286333 MiB available memory on the printing compute node when the environment starts

     Reading input from smo.scf.in
Warning: card &CELL ignored
Warning: card / ignored
Warning: card &FCP ignored
Warning: card / ignored
Warning: card &RISM ignored
Warning: card / ignored

     Current dimensions of program PWSCF are:
     Max number of different atomic species (ntypx) = 10
     Max number of k-points (npk) =  40000
     Max angular momentum in pseudopotentials (lmaxx) =  4
     file Sr.pz-spn-kjpaw_psl.1.0.0.UPF: wavefunction(s)  4P renormalized
     file Mo.pz-spn-kjpaw_psl.1.0.0.UPF: wavefunction(s)  4S 4D renormalized
     file O.pz-n-kjpaw_psl.1.0.0.UPF: wavefunction(s)  2S 2P renormalized
     Found identity + (  0.0000  0.0000 -0.5000) symmetry
     This is a supercell, fractional translations are disabled
     Message from routine setup:
     using ibrav=0 with symmetry is DISCOURAGED, use correct ibrav instead

     R & G space division:  proc/nbgrp/npool/nimage =      32
     Subspace diagonalization in iterative solution of the eigenvalue problem:
     a serial algorithm will be used


     Parallelization info
     --------------------
     sticks:   dense  smooth     PW     G-vecs:    dense   smooth      PW
     Min         178      89     24                13920     4919     696
     Max         179      90     25                13925     4924     700
     Sum        5713    2861    777               445525   157471   22331

     Using Slab Decomposition



     bravais-lattice index     =            0
     lattice parameter (alat)  =      10.5825  a.u.
     unit-cell volume          =    1629.5338 (a.u.)^3
     number of atoms/cell      =           20
     number of atomic types    =            3
     number of electrons       =       168.00
     number of Kohn-Sham states=          116
     kinetic-energy cutoff     =      80.0000  Ry
     charge density cutoff     =     640.0000  Ry
     scf convergence threshold =      1.0E-09
     mixing beta               =       0.4000
     number of iterations used =            8  plain     mixing
     Exchange-correlation= SLA  PZ   NOGX NOGC
                           (   1   1   0   0   0   0   0)

     celldm(1)=  10.582466  celldm(2)=   0.000000  celldm(3)=   0.000000
     celldm(4)=   0.000000  celldm(5)=   0.000000  celldm(6)=   0.000000

     crystal axes: (cart. coord. in units of alat)
               a(1) = (   1.000000   0.000000   0.000000 )  
               a(2) = (   0.000000   1.000000   0.000000 )  
               a(3) = (   0.000000   0.000000   1.375000 )  

     reciprocal axes: (cart. coord. in units 2 pi/alat)
               b(1) = (  1.000000  0.000000  0.000000 )  
               b(2) = (  0.000000  1.000000  0.000000 )  
               b(3) = (  0.000000  0.000000  0.727273 )  


     PseudoPot. # 1 for Sr read from file:
     ../../pseudo/Sr.pz-spn-kjpaw_psl.1.0.0.UPF
     MD5 check sum: 14b1f655f5497b386c4f305353cf4fd4
     Pseudo is Projector augmented-wave + core cor, Zval = 10.0
     Generated using 'atomic' code by A. Dal Corso  v.7.3
     Shape of augmentation charge: PSQ
     Using radial grid of 1221 points,  6 beta functions with: 
                l(1) =   0
                l(2) =   0
                l(3) =   1
                l(4) =   1
                l(5) =   2
                l(6) =   2
     Q(r) pseudized with 0 coefficients 


     PseudoPot. # 2 for Mo read from file:
     ../../pseudo/Mo.pz-spn-kjpaw_psl.1.0.0.UPF
     MD5 check sum: 2e12aff744a4785a34e7548d4bec1d21
     Pseudo is Projector augmented-wave + core cor, Zval = 14.0
     Generated using 'atomic' code by A. Dal Corso  v.7.3
     Shape of augmentation charge: PSQ
     Using radial grid of 1229 points,  6 beta functions with: 
                l(1) =   0
                l(2) =   0
                l(3) =   1
                l(4) =   1
                l(5) =   2
                l(6) =   2
     Q(r) pseudized with 0 coefficients 


     PseudoPot. # 3 for O  read from file:
     ../../pseudo/O.pz-n-kjpaw_psl.1.0.0.UPF
     MD5 check sum: 71a951e35f67dc87891058fc5642ed8f
     Pseudo is Projector augmented-wave + core cor, Zval =  6.0
     Generated using 'atomic' code by A. Dal Corso  v.7.3
     Shape of augmentation charge: PSQ
     Using radial grid of 1095 points,  4 beta functions with: 
                l(1) =   0
                l(2) =   0
                l(3) =   1
                l(4) =   1
     Q(r) pseudized with 0 coefficients 


     atomic species   valence    mass     pseudopotential
     Sr               10.00    87.62000     Sr( 1.00)
     Mo               14.00    95.95000     Mo( 1.00)
     O                 6.00    15.99900     O ( 1.00)

     16 Sym. Ops., with inversion, found


                                    s                        frac. trans.

      isym =  1     identity                                     

 cryst.   s( 1) = (     1          0          0      )
                  (     0          1          0      )
                  (     0          0          1      )

 cart.    s( 1) = (  1.0000000  0.0000000  0.0000000 )
                  (  0.0000000  1.0000000  0.0000000 )
                  (  0.0000000  0.0000000  1.0000000 )


      isym =  2     180 deg rotation - cart. axis [0,0,1]        

 cryst.   s( 2) = (    -1          0          0      )
                  (     0         -1          0      )
                  (     0          0          1      )

 cart.    s( 2) = ( -1.0000000  0.0000000  0.0000000 )
                  (  0.0000000 -1.0000000  0.0000000 )
                  (  0.0000000  0.0000000  1.0000000 )


      isym =  3     180 deg rotation - cart. axis [0,1,0]        

 cryst.   s( 3) = (    -1          0          0      )
                  (     0          1          0      )
                  (     0          0         -1      )

 cart.    s( 3) = ( -1.0000000  0.0000000  0.0000000 )
                  (  0.0000000  1.0000000  0.0000000 )
                  (  0.0000000  0.0000000 -1.0000000 )


      isym =  4     180 deg rotation - cart. axis [1,0,0]        

 cryst.   s( 4) = (     1          0          0      )
                  (     0         -1          0      )
                  (     0          0         -1      )

 cart.    s( 4) = (  1.0000000  0.0000000  0.0000000 )
                  (  0.0000000 -1.0000000  0.0000000 )
                  (  0.0000000  0.0000000 -1.0000000 )


      isym =  5     180 deg rotation - cart. axis [1,1,0]        

 cryst.   s( 5) = (     0          1          0      )
                  (     1          0          0      )
                  (     0          0         -1      )

 cart.    s( 5) = (  0.0000000  1.0000000  0.0000000 )
                  (  1.0000000  0.0000000  0.0000000 )
                  (  0.0000000  0.0000000 -1.0000000 )


      isym =  6     180 deg rotation - cart. axis [1,-1,0]       

 cryst.   s( 6) = (     0         -1          0      )
                  (    -1          0          0      )
                  (     0          0         -1      )

 cart.    s( 6) = (  0.0000000 -1.0000000  0.0000000 )
                  ( -1.0000000  0.0000000  0.0000000 )
                  (  0.0000000  0.0000000 -1.0000000 )


      isym =  7      90 deg rotation - cart. axis [0,0,-1]       

 cryst.   s( 7) = (     0         -1          0      )
                  (     1          0          0      )
                  (     0          0          1      )

 cart.    s( 7) = (  0.0000000  1.0000000  0.0000000 )
                  ( -1.0000000  0.0000000  0.0000000 )
                  (  0.0000000  0.0000000  1.0000000 )


      isym =  8      90 deg rotation - cart. axis [0,0,1]        

 cryst.   s( 8) = (     0          1          0      )
                  (    -1          0          0      )
                  (     0          0          1      )

 cart.    s( 8) = (  0.0000000 -1.0000000  0.0000000 )
                  (  1.0000000  0.0000000  0.0000000 )
                  (  0.0000000  0.0000000  1.0000000 )


      isym =  9     inversion                                    

 cryst.   s( 9) = (    -1          0          0      )
                  (     0         -1          0      )
                  (     0          0         -1      )

 cart.    s( 9) = ( -1.0000000  0.0000000  0.0000000 )
                  (  0.0000000 -1.0000000  0.0000000 )
                  (  0.0000000  0.0000000 -1.0000000 )


      isym = 10     inv. 180 deg rotation - cart. axis [0,0,1]   

 cryst.   s(10) = (     1          0          0      )
                  (     0          1          0      )
                  (     0          0         -1      )

 cart.    s(10) = (  1.0000000  0.0000000  0.0000000 )
                  (  0.0000000  1.0000000  0.0000000 )
                  (  0.0000000  0.0000000 -1.0000000 )


      isym = 11     inv. 180 deg rotation - cart. axis [0,1,0]   

 cryst.   s(11) = (     1          0          0      )
                  (     0         -1          0      )
                  (     0          0          1      )

 cart.    s(11) = (  1.0000000  0.0000000  0.0000000 )
                  (  0.0000000 -1.0000000  0.0000000 )
                  (  0.0000000  0.0000000  1.0000000 )


      isym = 12     inv. 180 deg rotation - cart. axis [1,0,0]   

 cryst.   s(12) = (    -1          0          0      )
                  (     0          1          0      )
                  (     0          0          1      )

 cart.    s(12) = ( -1.0000000  0.0000000  0.0000000 )
                  (  0.0000000  1.0000000  0.0000000 )
                  (  0.0000000  0.0000000  1.0000000 )


      isym = 13     inv. 180 deg rotation - cart. axis [1,1,0]   

 cryst.   s(13) = (     0         -1          0      )
                  (    -1          0          0      )
                  (     0          0          1      )

 cart.    s(13) = (  0.0000000 -1.0000000  0.0000000 )
                  ( -1.0000000  0.0000000  0.0000000 )
                  (  0.0000000  0.0000000  1.0000000 )


      isym = 14     inv. 180 deg rotation - cart. axis [1,-1,0]  

 cryst.   s(14) = (     0          1          0      )
                  (     1          0          0      )
                  (     0          0          1      )

 cart.    s(14) = (  0.0000000  1.0000000  0.0000000 )
                  (  1.0000000  0.0000000  0.0000000 )
                  (  0.0000000  0.0000000  1.0000000 )


      isym = 15     inv.  90 deg rotation - cart. axis [0,0,-1]  

 cryst.   s(15) = (     0          1          0      )
                  (    -1          0          0      )
                  (     0          0         -1      )

 cart.    s(15) = (  0.0000000 -1.0000000  0.0000000 )
                  (  1.0000000  0.0000000  0.0000000 )
                  (  0.0000000  0.0000000 -1.0000000 )


      isym = 16     inv.  90 deg rotation - cart. axis [0,0,1]   

 cryst.   s(16) = (     0         -1          0      )
                  (     1          0          0      )
                  (     0          0         -1      )

 cart.    s(16) = (  0.0000000  1.0000000  0.0000000 )
                  ( -1.0000000  0.0000000  0.0000000 )
                  (  0.0000000  0.0000000 -1.0000000 )


   Cartesian axes

     site n.     atom                  positions (alat units)
         1        Sr     tau(   1) = (   0.0000000   0.5000000   0.3437500  )
         2        Sr     tau(   2) = (   0.0000000   0.5000000   1.0312500  )
         3        Sr     tau(   3) = (   0.5000000   0.0000000   1.0312500  )
         4        Sr     tau(   4) = (   0.5000000   0.0000000   0.3437500  )
         5        Mo     tau(   5) = (   0.0000000   0.0000000   0.0000000  )
         6        Mo     tau(   6) = (   0.0000000   0.0000000   0.6875000  )
         7        Mo     tau(   7) = (   0.5000000   0.5000000   0.6875000  )
         8        Mo     tau(   8) = (   0.5000000   0.5000000   0.0000000  )
         9        O      tau(   9) = (   0.2500000   0.7500000   0.0000000  )
        10        O      tau(  10) = (   0.2500000   0.2500000   0.0000000  )
        11        O      tau(  11) = (   0.7500000   0.2500000   0.6875000  )
        12        O      tau(  12) = (   0.7500000   0.7500000   0.6875000  )
        13        O      tau(  13) = (   0.7500000   0.2500000   0.0000000  )
        14        O      tau(  14) = (   0.7500000   0.7500000   0.0000000  )
        15        O      tau(  15) = (   0.2500000   0.7500000   0.6875000  )
        16        O      tau(  16) = (   0.2500000   0.2500000   0.6875000  )
        17        O      tau(  17) = (   0.0000000   0.0000000   0.3437500  )
        18        O      tau(  18) = (   0.0000000   0.0000000   1.0312500  )
        19        O      tau(  19) = (   0.5000000   0.5000000   1.0312500  )
        20        O      tau(  20) = (   0.5000000   0.5000000   0.3437500  )

   Crystallographic axes

     site n.     atom                  positions (cryst. coord.)
         1        Sr     tau(   1) = (  0.0000000  0.5000000  0.2500000  )
         2        Sr     tau(   2) = (  0.0000000  0.5000000  0.7500000  )
         3        Sr     tau(   3) = (  0.5000000  0.0000000  0.7500000  )
         4        Sr     tau(   4) = (  0.5000000  0.0000000  0.2500000  )
         5        Mo     tau(   5) = (  0.0000000  0.0000000  0.0000000  )
         6        Mo     tau(   6) = (  0.0000000  0.0000000  0.5000000  )
         7        Mo     tau(   7) = (  0.5000000  0.5000000  0.5000000  )
         8        Mo     tau(   8) = (  0.5000000  0.5000000  0.0000000  )
         9        O      tau(   9) = (  0.2500000  0.7500000  0.0000000  )
        10        O      tau(  10) = (  0.2500000  0.2500000  0.0000000  )
        11        O      tau(  11) = (  0.7500000  0.2500000  0.5000000  )
        12        O      tau(  12) = (  0.7500000  0.7500000  0.5000000  )
        13        O      tau(  13) = (  0.7500000  0.2500000  0.0000000  )
        14        O      tau(  14) = (  0.7500000  0.7500000  0.0000000  )
        15        O      tau(  15) = (  0.2500000  0.7500000  0.5000000  )
        16        O      tau(  16) = (  0.2500000  0.2500000  0.5000000  )
        17        O      tau(  17) = (  0.0000000  0.0000000  0.2500000  )
        18        O      tau(  18) = (  0.0000000  0.0000000  0.7500000  )
        19        O      tau(  19) = (  0.5000000  0.5000000  0.7500000  )
        20        O      tau(  20) = (  0.5000000  0.5000000  0.2500000  )

     number of k points=    18  Marzari-Vanderbilt smearing, width (Ry)=  0.0100
                       cart. coord. in units 2pi/alat
        k(    1) = (   0.0000000   0.0000000   0.0000000), wk =   0.0160000
        k(    2) = (   0.0000000   0.0000000   0.1454545), wk =   0.0320000
        k(    3) = (   0.0000000   0.0000000   0.2909091), wk =   0.0320000
        k(    4) = (   0.0000000   0.2000000   0.0000000), wk =   0.0640000
        k(    5) = (   0.0000000   0.2000000   0.1454545), wk =   0.1280000
        k(    6) = (   0.0000000   0.2000000   0.2909091), wk =   0.1280000
        k(    7) = (   0.0000000   0.4000000   0.0000000), wk =   0.0640000
        k(    8) = (   0.0000000   0.4000000   0.1454545), wk =   0.1280000
        k(    9) = (   0.0000000   0.4000000   0.2909091), wk =   0.1280000
        k(   10) = (   0.2000000   0.2000000   0.0000000), wk =   0.0640000
        k(   11) = (   0.2000000   0.2000000   0.1454545), wk =   0.1280000
        k(   12) = (   0.2000000   0.2000000   0.2909091), wk =   0.1280000
        k(   13) = (   0.2000000   0.4000000   0.0000000), wk =   0.1280000
        k(   14) = (   0.2000000   0.4000000   0.1454545), wk =   0.2560000
        k(   15) = (   0.2000000   0.4000000   0.2909091), wk =   0.2560000
        k(   16) = (   0.4000000   0.4000000   0.0000000), wk =   0.0640000
        k(   17) = (   0.4000000   0.4000000   0.1454545), wk =   0.1280000
        k(   18) = (   0.4000000   0.4000000   0.2909091), wk =   0.1280000

                       cryst. coord.
        k(    1) = (   0.0000000   0.0000000   0.0000000), wk =   0.0160000
        k(    2) = (   0.0000000   0.0000000   0.2000000), wk =   0.0320000
        k(    3) = (   0.0000000   0.0000000   0.4000000), wk =   0.0320000
        k(    4) = (   0.0000000   0.2000000   0.0000000), wk =   0.0640000
        k(    5) = (   0.0000000   0.2000000   0.2000000), wk =   0.1280000
        k(    6) = (   0.0000000   0.2000000   0.4000000), wk =   0.1280000
        k(    7) = (   0.0000000   0.4000000   0.0000000), wk =   0.0640000
        k(    8) = (   0.0000000   0.4000000   0.2000000), wk =   0.1280000
        k(    9) = (   0.0000000   0.4000000   0.4000000), wk =   0.1280000
        k(   10) = (   0.2000000   0.2000000   0.0000000), wk =   0.0640000
        k(   11) = (   0.2000000   0.2000000   0.2000000), wk =   0.1280000
        k(   12) = (   0.2000000   0.2000000   0.4000000), wk =   0.1280000
        k(   13) = (   0.2000000   0.4000000   0.0000000), wk =   0.1280000
        k(   14) = (   0.2000000   0.4000000   0.2000000), wk =   0.2560000
        k(   15) = (   0.2000000   0.4000000   0.4000000), wk =   0.2560000
        k(   16) = (   0.4000000   0.4000000   0.0000000), wk =   0.0640000
        k(   17) = (   0.4000000   0.4000000   0.2000000), wk =   0.1280000
        k(   18) = (   0.4000000   0.4000000   0.4000000), wk =   0.1280000

     Dense  grid:   445525 G-vectors     FFT dimensions: (  90,  90, 120)

     Smooth grid:   157471 G-vectors     FFT dimensions: (  64,  64,  90)

     Dynamical RAM for                 wfc:       1.09 MB

     Dynamical RAM for     wfc (w. buffer):      20.68 MB

     Dynamical RAM for           str. fact:       0.64 MB

     Dynamical RAM for           local pot:       0.00 MB

     Dynamical RAM for          nlocal pot:       2.25 MB

     Dynamical RAM for                qrad:       6.09 MB

     Dynamical RAM for          rho,v,vnew:       1.38 MB

     Dynamical RAM for               rhoin:       0.46 MB

     Dynamical RAM for            rho*nmix:       3.40 MB

     Dynamical RAM for           G-vectors:       0.83 MB

     Dynamical RAM for          h,s,v(r/c):       2.46 MB

     Dynamical RAM for          <psi|beta>:       0.42 MB

     Dynamical RAM for                 psi:       2.18 MB

     Dynamical RAM for                hpsi:       2.18 MB

     Dynamical RAM for                spsi:       2.18 MB

     Dynamical RAM for      wfcinit/wfcrot:       2.58 MB

     Dynamical RAM for           addusdens:      42.06 MB

     Estimated static dynamical RAM per process >      34.42 MB

     Estimated max dynamical RAM per process >      79.88 MB

     Estimated total dynamical RAM >       2.50 GB

     Initial potential from superposition of free atoms

     starting charge     167.9716, renormalised to     168.0000
     Starting wfcs are  120 randomized atomic wfcs
     Checking if some PAW data can be deallocated... 
       PAW data deallocated on   24 nodes for type:  1
       PAW data deallocated on   24 nodes for type:  2
       PAW data deallocated on   16 nodes for type:  3

     total cpu time spent up to now is        4.9 secs

     Self-consistent Calculation

     iteration #  1     ecut=    80.00 Ry     beta= 0.40
     Davidson diagonalization with overlap

---- Real-time Memory Report at c_bands before calling an iterative solver
            88 MiB given to the printing process from OS
             0 MiB allocation reported by mallinfo(arena+hblkhd)
        270008 MiB available memory on the node where the printing process lives
------------------
     ethr =  1.00E-02,  avg # of iterations =  8.7

     total cpu time spent up to now is       21.3 secs

     total energy              =   -2922.20010739 Ry
     estimated scf accuracy    <       4.86776095 Ry

     iteration #  2     ecut=    80.00 Ry     beta= 0.40
     Davidson diagonalization with overlap

---- Real-time Memory Report at c_bands before calling an iterative solver
           129 MiB given to the printing process from OS
             0 MiB allocation reported by mallinfo(arena+hblkhd)
        347731 MiB available memory on the node where the printing process lives
------------------
     ethr =  2.90E-03,  avg # of iterations =  3.7

     total cpu time spent up to now is       32.8 secs

     total energy              =   -2923.54717402 Ry
     estimated scf accuracy    <       0.70467340 Ry

     iteration #  3     ecut=    80.00 Ry     beta= 0.40
     Davidson diagonalization with overlap

---- Real-time Memory Report at c_bands before calling an iterative solver
           129 MiB given to the printing process from OS
             0 MiB allocation reported by mallinfo(arena+hblkhd)
        363724 MiB available memory on the node where the printing process lives
------------------
     c_bands:  2 eigenvalues not converged
     ethr =  4.19E-04,  avg # of iterations =  9.5

     total cpu time spent up to now is       49.8 secs

     total energy              =   -2923.81917408 Ry
     estimated scf accuracy    <       0.39183863 Ry

     iteration #  4     ecut=    80.00 Ry     beta= 0.40
     Davidson diagonalization with overlap

---- Real-time Memory Report at c_bands before calling an iterative solver
           130 MiB given to the printing process from OS
             0 MiB allocation reported by mallinfo(arena+hblkhd)
        347341 MiB available memory on the node where the printing process lives
------------------
     c_bands:  1 eigenvalues not converged
     c_bands:  3 eigenvalues not converged
     ethr =  2.33E-04,  avg # of iterations =  7.0

     total cpu time spent up to now is       61.8 secs

     total energy              =   -2923.81616754 Ry
     estimated scf accuracy    <       1.29969127 Ry

     iteration #  5     ecut=    80.00 Ry     beta= 0.40
     Davidson diagonalization with overlap

---- Real-time Memory Report at c_bands before calling an iterative solver
           130 MiB given to the printing process from OS
             0 MiB allocation reported by mallinfo(arena+hblkhd)
        321479 MiB available memory on the node where the printing process lives
------------------
     ethr =  2.33E-04,  avg # of iterations =  1.6

     total cpu time spent up to now is       71.0 secs

     total energy              =   -2923.86508225 Ry
     estimated scf accuracy    <       0.06142108 Ry

     iteration #  6     ecut=    80.00 Ry     beta= 0.40
     Davidson diagonalization with overlap

---- Real-time Memory Report at c_bands before calling an iterative solver
           130 MiB given to the printing process from OS
             0 MiB allocation reported by mallinfo(arena+hblkhd)
        338430 MiB available memory on the node where the printing process lives
------------------
     c_bands:  1 eigenvalues not converged
     c_bands:  1 eigenvalues not converged
     c_bands:  2 eigenvalues not converged
     c_bands:  1 eigenvalues not converged
     c_bands:  1 eigenvalues not converged
     ethr =  3.66E-05,  avg # of iterations = 13.9

     total cpu time spent up to now is       87.0 secs

     total energy              =   -2923.86157146 Ry
     estimated scf accuracy    <       0.15040811 Ry

     iteration #  7     ecut=    80.00 Ry     beta= 0.40
     Davidson diagonalization with overlap

---- Real-time Memory Report at c_bands before calling an iterative solver
           130 MiB given to the printing process from OS
             0 MiB allocation reported by mallinfo(arena+hblkhd)
        363771 MiB available memory on the node where the printing process lives
------------------
     ethr =  3.66E-05,  avg # of iterations =  4.1

     total cpu time spent up to now is       98.3 secs

     total energy              =   -2923.86824958 Ry
     estimated scf accuracy    <       0.02604014 Ry

     iteration #  8     ecut=    80.00 Ry     beta= 0.40
     Davidson diagonalization with overlap

---- Real-time Memory Report at c_bands before calling an iterative solver
           131 MiB given to the printing process from OS
             0 MiB allocation reported by mallinfo(arena+hblkhd)
        298217 MiB available memory on the node where the printing process lives
------------------
     c_bands:  4 eigenvalues not converged
     ethr =  1.55E-05,  avg # of iterations =  5.3

     total cpu time spent up to now is      110.9 secs

     total energy              =   -2923.87049808 Ry
     estimated scf accuracy    <       0.03906482 Ry

     iteration #  9     ecut=    80.00 Ry     beta= 0.40
     Davidson diagonalization with overlap

---- Real-time Memory Report at c_bands before calling an iterative solver
           131 MiB given to the printing process from OS
             0 MiB allocation reported by mallinfo(arena+hblkhd)
        155710 MiB available memory on the node where the printing process lives
------------------
     ethr =  1.55E-05,  avg # of iterations =  1.9

     total cpu time spent up to now is      120.4 secs

     total energy              =   -2923.87106162 Ry
     estimated scf accuracy    <       0.00474101 Ry

     iteration # 10     ecut=    80.00 Ry     beta= 0.40
     Davidson diagonalization with overlap

---- Real-time Memory Report at c_bands before calling an iterative solver
           131 MiB given to the printing process from OS
             0 MiB allocation reported by mallinfo(arena+hblkhd)
        148281 MiB available memory on the node where the printing process lives
------------------
     c_bands:  1 eigenvalues not converged
     c_bands:  2 eigenvalues not converged
     c_bands:  4 eigenvalues not converged
     c_bands:  2 eigenvalues not converged
     ethr =  2.82E-06,  avg # of iterations =  8.9

     total cpu time spent up to now is      133.6 secs

     total energy              =   -2923.87075041 Ry
     estimated scf accuracy    <       0.00119826 Ry

     iteration # 11     ecut=    80.00 Ry     beta= 0.40
     Davidson diagonalization with overlap

---- Real-time Memory Report at c_bands before calling an iterative solver
           131 MiB given to the printing process from OS
             0 MiB allocation reported by mallinfo(arena+hblkhd)
        282031 MiB available memory on the node where the printing process lives
------------------
     ethr =  7.13E-07,  avg # of iterations =  6.4

     total cpu time spent up to now is      147.7 secs

     total energy              =   -2923.87111964 Ry
     estimated scf accuracy    <       0.00009995 Ry

     iteration # 12     ecut=    80.00 Ry     beta= 0.40
     Davidson diagonalization with overlap

---- Real-time Memory Report at c_bands before calling an iterative solver
           131 MiB given to the printing process from OS
             0 MiB allocation reported by mallinfo(arena+hblkhd)
        326094 MiB available memory on the node where the printing process lives
------------------
     c_bands:  1 eigenvalues not converged
     ethr =  5.95E-08,  avg # of iterations =  6.4

     total cpu time spent up to now is      162.7 secs

     total energy              =   -2923.87115317 Ry
     estimated scf accuracy    <       0.00004014 Ry

     iteration # 13     ecut=    80.00 Ry     beta= 0.40
     Davidson diagonalization with overlap

---- Real-time Memory Report at c_bands before calling an iterative solver
           131 MiB given to the printing process from OS
             0 MiB allocation reported by mallinfo(arena+hblkhd)
        293448 MiB available memory on the node where the printing process lives
------------------
     ethr =  2.39E-08,  avg # of iterations =  2.8

     total cpu time spent up to now is      169.0 secs

     total energy              =   -2923.87115956 Ry
     estimated scf accuracy    <       0.00000429 Ry

     iteration # 14     ecut=    80.00 Ry     beta= 0.40
     Davidson diagonalization with overlap

---- Real-time Memory Report at c_bands before calling an iterative solver
           131 MiB given to the printing process from OS
             0 MiB allocation reported by mallinfo(arena+hblkhd)
        297544 MiB available memory on the node where the printing process lives
------------------
     ethr =  2.55E-09,  avg # of iterations =  5.8

     total cpu time spent up to now is      177.1 secs

     total energy              =   -2923.87116141 Ry
     estimated scf accuracy    <       0.00000599 Ry

     iteration # 15     ecut=    80.00 Ry     beta= 0.40
     Davidson diagonalization with overlap

---- Real-time Memory Report at c_bands before calling an iterative solver
           131 MiB given to the printing process from OS
             0 MiB allocation reported by mallinfo(arena+hblkhd)
        322624 MiB available memory on the node where the printing process lives
------------------
     ethr =  2.55E-09,  avg # of iterations =  1.1

     total cpu time spent up to now is      181.6 secs

     total energy              =   -2923.87116091 Ry
     estimated scf accuracy    <       0.00000166 Ry

     iteration # 16     ecut=    80.00 Ry     beta= 0.40
     Davidson diagonalization with overlap

---- Real-time Memory Report at c_bands before calling an iterative solver
           135 MiB given to the printing process from OS
             0 MiB allocation reported by mallinfo(arena+hblkhd)
        351483 MiB available memory on the node where the printing process lives
------------------
     ethr =  9.89E-10,  avg # of iterations =  4.7

     total cpu time spent up to now is      188.7 secs

     total energy              =   -2923.87116165 Ry
     estimated scf accuracy    <       0.00000065 Ry

     iteration # 17     ecut=    80.00 Ry     beta= 0.40
     Davidson diagonalization with overlap

---- Real-time Memory Report at c_bands before calling an iterative solver
           135 MiB given to the printing process from OS
             0 MiB allocation reported by mallinfo(arena+hblkhd)
        358425 MiB available memory on the node where the printing process lives
------------------
     ethr =  3.84E-10,  avg # of iterations =  2.0

     total cpu time spent up to now is      193.7 secs

     total energy              =   -2923.87116163 Ry
     estimated scf accuracy    <       0.00000022 Ry

     iteration # 18     ecut=    80.00 Ry     beta= 0.40
     Davidson diagonalization with overlap

---- Real-time Memory Report at c_bands before calling an iterative solver
           135 MiB given to the printing process from OS
             0 MiB allocation reported by mallinfo(arena+hblkhd)
        347776 MiB available memory on the node where the printing process lives
------------------
     ethr =  1.31E-10,  avg # of iterations =  2.1

     total cpu time spent up to now is      199.0 secs

     total energy              =   -2923.87116167 Ry
     estimated scf accuracy    <          3.5E-09 Ry

     iteration # 19     ecut=    80.00 Ry     beta= 0.40
     Davidson diagonalization with overlap

---- Real-time Memory Report at c_bands before calling an iterative solver
           135 MiB given to the printing process from OS
             0 MiB allocation reported by mallinfo(arena+hblkhd)
        350939 MiB available memory on the node where the printing process lives
------------------
     ethr =  2.10E-12,  avg # of iterations =  7.3

     total cpu time spent up to now is      208.3 secs

     total energy              =   -2923.87116167 Ry
     estimated scf accuracy    <       0.00000001 Ry

     iteration # 20     ecut=    80.00 Ry     beta= 0.40
     Davidson diagonalization with overlap

---- Real-time Memory Report at c_bands before calling an iterative solver
           135 MiB given to the printing process from OS
             0 MiB allocation reported by mallinfo(arena+hblkhd)
        347961 MiB available memory on the node where the printing process lives
------------------
     ethr =  2.10E-12,  avg # of iterations =  4.9

     total cpu time spent up to now is      216.2 secs

     total energy              =   -2923.87116168 Ry
     estimated scf accuracy    <          1.2E-09 Ry

     iteration # 21     ecut=    80.00 Ry     beta= 0.40
     Davidson diagonalization with overlap

---- Real-time Memory Report at c_bands before calling an iterative solver
           135 MiB given to the printing process from OS
             0 MiB allocation reported by mallinfo(arena+hblkhd)
        335202 MiB available memory on the node where the printing process lives
------------------
     ethr =  7.31E-13,  avg # of iterations =  1.6

     total cpu time spent up to now is      220.9 secs

     End of self-consistent calculation

          k = 0.0000 0.0000 0.0000 ( 19725 PWs)   bands (ev):

   -48.2468 -48.2446 -48.2440 -48.2419 -22.7431 -22.7223 -22.6085 -22.6013
   -22.5546 -22.5546 -22.5480 -22.5480 -22.4719 -22.4719 -22.4663 -22.4663
   -21.4826 -21.4438 -21.4395 -21.4210  -6.4822  -6.3919  -6.1459  -5.7054
    -5.4897  -5.4421  -5.2517  -5.2517  -4.8921  -4.8619  -4.6963  -4.6963
    -3.8295  -3.7970  -3.7970  -3.5347  -3.5347  -3.4843  -3.4843  -3.4825
    -3.3854  -3.0335  -3.0335  -2.9384   5.2752   5.3384   5.7243   5.7472
     5.8969   5.9213   6.1328   6.5223   6.5223   6.8775   7.7327   7.7327
     7.7357   7.7357   8.2546   8.2546   8.2596   8.2596   8.3813   8.4253
     8.8164   9.0116   9.0116   9.3073   9.5351   9.5351   9.7014  10.0555
    10.0555  10.3113  10.3292  10.3292  10.7296  10.7963  10.7963  10.8328
    12.2297  12.2364  12.2364  12.4910  15.0127  15.0127  15.3227  15.3227
    15.7965  16.0848  16.1658  16.1753  16.2042  16.3361  16.3361  16.3504
    16.4100  16.8587  17.6073  17.8036  17.8036  17.8790  18.3096  18.3810
    18.7668  18.7802  19.0681  19.0729  19.6084  19.6641  19.6641  20.3562
    20.3562  20.3611  20.5514  20.7261

     occupation numbers 
     1.0000   1.0000   1.0000   1.0000   1.0000   1.0000   1.0000   1.0000
     1.0000   1.0000   1.0000   1.0000   1.0000   1.0000   1.0000   1.0000
     1.0000   1.0000   1.0000   1.0000   1.0000   1.0000   1.0000   1.0000
     1.0000   1.0000   1.0000   1.0000   1.0000   1.0000   1.0000   1.0000
     1.0000   1.0000   1.0000   1.0000   1.0000   1.0000   1.0000   1.0000
     1.0000   1.0000   1.0000   1.0000   1.0000   1.0000   1.0000   1.0000
     1.0000   1.0000   1.0000   1.0000   1.0000   1.0000   1.0000   1.0000
     1.0000   1.0000   1.0000   1.0000   1.0000   1.0000   1.0000   1.0000
     1.0000   1.0000   1.0000   1.0000   1.0000   1.0000   1.0000   1.0000
     1.0000   1.0000   1.0000   1.0000   1.0000   1.0000   1.0000   1.0000
     1.0000   1.0000   1.0000   1.0000   0.0000   0.0000   0.0000   0.0000
     0.0000   0.0000   0.0000   0.0000   0.0000   0.0000   0.0000   0.0000
     0.0000   0.0000   0.0000   0.0000   0.0000   0.0000   0.0000   0.0000
     0.0000   0.0000   0.0000   0.0000   0.0000   0.0000   0.0000   0.0000
     0.0000   0.0000   0.0000   0.0000

          k = 0.0000 0.0000 0.1455 ( 19697 PWs)   bands (ev):

   -48.2466 -48.2448 -48.2438 -48.2421 -22.7306 -22.7109 -22.6218 -22.6131
   -22.5540 -22.5540 -22.5486 -22.5486 -22.4714 -22.4714 -22.4668 -22.4668
   -21.4783 -21.4435 -21.4416 -21.4232  -6.4455  -6.3385  -6.0395  -5.7153
    -5.4852  -5.4467  -5.2154  -5.2154  -5.0253  -5.0054  -4.7826  -4.7826
    -3.7897  -3.6913  -3.6913  -3.5299  -3.5299  -3.4892  -3.4892  -3.4307
    -3.4210  -3.0901  -3.0901  -2.9831   5.5332   5.6444   5.7265   5.7450
     5.9013   6.0136   6.1918   6.5915   6.5915   6.7868   7.5047   7.5047
     7.7972   7.7972   8.1737   8.2162   8.2162   8.3262   8.3262   8.4843
     8.8486   8.8890   9.2962   9.2962   9.3247   9.3247   9.6014   9.9448
    10.0700  10.0700  10.2675  10.2675  10.6739  10.6739  10.7392  10.8227
    12.2530  12.4642  12.6172  12.6172  15.0475  15.0475  15.0992  15.0992
    15.8345  16.1313  16.1313  16.1337  16.1832  16.2024  16.2711  16.5397
    16.6941  17.2657  17.6839  18.0468  18.0630  18.0630  18.1597  18.1796
    18.8256  18.8451  18.8969  19.1704  19.5252  19.7514  19.7514  20.2632
    20.2632  20.3227  20.3878  20.4686

     occupation numbers 
     1.0000   1.0000   1.0000   1.0000   1.0000   1.0000   1.0000   1.0000
     1.0000   1.0000   1.0000   1.0000   1.0000   1.0000   1.0000   1.0000
     1.0000   1.0000   1.0000   1.0000   1.0000   1.0000   1.0000   1.0000
     1.0000   1.0000   1.0000   1.0000   1.0000   1.0000   1.0000   1.0000
     1.0000   1.0000   1.0000   1.0000   1.0000   1.0000   1.0000   1.0000
     1.0000   1.0000   1.0000   1.0000   1.0000   1.0000   1.0000   1.0000
     1.0000   1.0000   1.0000   1.0000   1.0000   1.0000   1.0000   1.0000
     1.0000   1.0000   1.0000   1.0000   1.0000   1.0000   1.0000   1.0000
     1.0000   1.0000   1.0000   1.0000   1.0000   1.0000   1.0000   1.0000
     1.0000   1.0000   1.0000   1.0000   1.0000   1.0000   1.0000   1.0000
     1.0000   1.0000   1.0000   1.0000   0.0000   0.0000   0.0000   0.0000
     0.0000   0.0000   0.0000   0.0000   0.0000   0.0000   0.0000   0.0000
     0.0000   0.0000   0.0000   0.0000   0.0000   0.0000   0.0000   0.0000
     0.0000   0.0000   0.0000   0.0000   0.0000   0.0000   0.0000   0.0000
     0.0000   0.0000   0.0000   0.0000

          k = 0.0000 0.0000 0.2909 ( 19634 PWs)   bands (ev):

   -48.2460 -48.2453 -48.2433 -48.2426 -22.6976 -22.6810 -22.6560 -22.6436
   -22.5523 -22.5523 -22.5503 -22.5503 -22.4700 -22.4700 -22.4682 -22.4682
   -21.4672 -21.4539 -21.4359 -21.4289  -6.3551  -6.2865  -5.7479  -5.6280
    -5.4734  -5.4587  -5.3556  -5.3380  -5.1107  -5.1107  -4.9532  -4.9532
    -3.6831  -3.5461  -3.5174  -3.5174  -3.5019  -3.5019  -3.4694  -3.4694
    -3.2720  -3.2475  -3.2475  -3.1061   5.7322   5.7393   5.8610   5.9060
     6.2539   6.4460   6.5489   6.7130   6.7955   6.7955   7.1185   7.1185
     7.4318   7.7981   7.9473   7.9473   8.1065   8.1065   8.5376   8.5376
     8.7878   8.9014   8.9014   9.0887   9.2903   9.3588   9.8289   9.8289
    10.1128  10.1128  10.1806  10.1806  10.3292  10.3292  10.7646  10.7965
    12.3154  12.3960  13.4429  13.4429  14.3403  14.3403  15.3506  15.3506
    15.7283  15.7283  15.9316  16.0461  16.1909  16.1974  16.7659  17.0417
    17.3211  17.4348  17.6646  17.8897  18.1271  18.1411  18.2700  18.6655
    18.6655  19.0515  19.3109  19.3663  19.4436  19.4436  19.4682  19.8244
    19.9531  19.9655  19.9655  20.1904

     occupation numbers 
     1.0000   1.0000   1.0000   1.0000   1.0000   1.0000   1.0000   1.0000
     1.0000   1.0000   1.0000   1.0000   1.0000   1.0000   1.0000   1.0000
     1.0000   1.0000   1.0000   1.0000   1.0000   1.0000   1.0000   1.0000
     1.0000   1.0000   1.0000   1.0000   1.0000   1.0000   1.0000   1.0000
     1.0000   1.0000   1.0000   1.0000   1.0000   1.0000   1.0000   1.0000
     1.0000   1.0000   1.0000   1.0000   1.0000   1.0000   1.0000   1.0000
     1.0000   1.0000   1.0000   1.0000   1.0000   1.0000   1.0000   1.0000
     1.0000   1.0000   1.0000   1.0000   1.0000   1.0000   1.0000   1.0000
     1.0000   1.0000   1.0000   1.0000   1.0000   1.0000   1.0000   1.0000
     1.0000   1.0000   1.0000   1.0000   1.0000   1.0000   1.0000   1.0000
     1.0000   1.0000   1.0000   1.0000   0.3496   0.3496   0.0000   0.0000
     0.0000   0.0000   0.0000   0.0000   0.0000   0.0000   0.0000   0.0000
     0.0000   0.0000   0.0000   0.0000   0.0000   0.0000   0.0000   0.0000
     0.0000   0.0000   0.0000   0.0000   0.0000   0.0000   0.0000   0.0000
     0.0000   0.0000   0.0000   0.0000

          k = 0.0000 0.2000 0.0000 ( 19668 PWs)   bands (ev):

   -48.2465 -48.2443 -48.2443 -48.2421 -22.7401 -22.7233 -22.6078 -22.6020
   -22.5495 -22.5468 -22.5405 -22.5403 -22.4829 -22.4799 -22.4744 -22.4742
   -21.4751 -21.4440 -21.4390 -21.4240  -6.4128  -6.3548  -6.2353  -5.6454
    -5.4642  -5.3785  -5.2713  -5.2359  -4.9710  -4.9699  -4.9617  -4.7766
    -3.7678  -3.6552  -3.6287  -3.5148  -3.4981  -3.4750  -3.4461  -3.3966
    -3.3894  -3.0950  -3.0664  -2.9915   5.2951   5.3332   5.9880   6.0111
     6.0988   6.2145   6.3896   6.4234   6.5693   6.9865   7.1039   7.4278
     7.8193   7.8543   7.9792   8.0178   8.1221   8.1958   8.3798   8.8977
     9.0015   9.0260   9.0657   9.2306   9.3570   9.3677   9.5178   9.5196
     9.7585   9.8140  10.0216  10.1366  10.5869  10.6012  10.6276  10.7085
    12.5384  12.6472  12.8161  13.0410  14.7501  14.8141  15.3374  15.3483
    15.5049  15.8352  16.1210  16.1768  16.4239  16.6575  16.7445  16.8399
    16.8425  17.1944  17.8479  18.0624  18.0759  18.1409  18.5260  18.5641
    18.7592  18.9728  19.0933  19.2654  19.6134  19.7389  19.7542  20.1351
    20.1910  20.2803  20.3327  20.3640

     occupation numbers 
     1.0000   1.0000   1.0000   1.0000   1.0000   1.0000   1.0000   1.0000
     1.0000   1.0000   1.0000   1.0000   1.0000   1.0000   1.0000   1.0000
     1.0000   1.0000   1.0000   1.0000   1.0000   1.0000   1.0000   1.0000
     1.0000   1.0000   1.0000   1.0000   1.0000   1.0000   1.0000   1.0000
     1.0000   1.0000   1.0000   1.0000   1.0000   1.0000   1.0000   1.0000
     1.0000   1.0000   1.0000   1.0000   1.0000   1.0000   1.0000   1.0000
     1.0000   1.0000   1.0000   1.0000   1.0000   1.0000   1.0000   1.0000
     1.0000   1.0000   1.0000   1.0000   1.0000   1.0000   1.0000   1.0000
     1.0000   1.0000   1.0000   1.0000   1.0000   1.0000   1.0000   1.0000
     1.0000   1.0000   1.0000   1.0000   1.0000   1.0000   1.0000   1.0000
     1.0000   1.0000   1.0000   1.0000   0.0000   0.0000   0.0000   0.0000
     0.0000   0.0000   0.0000   0.0000   0.0000   0.0000   0.0000   0.0000
     0.0000   0.0000   0.0000   0.0000   0.0000   0.0000   0.0000   0.0000
     0.0000   0.0000   0.0000   0.0000   0.0000   0.0000   0.0000   0.0000
     0.0000   0.0000   0.0000   0.0000

          k = 0.0000 0.2000 0.1455 ( 19679 PWs)   bands (ev):

   -48.2463 -48.2445 -48.2441 -48.2423 -22.7278 -22.7119 -22.6208 -22.6138
   -22.5486 -22.5461 -22.5413 -22.5409 -22.4821 -22.4793 -22.4752 -22.4747
   -21.4715 -21.4423 -21.4421 -21.4259  -6.3462  -6.3238  -6.1333  -5.6628
    -5.4563  -5.3869  -5.2374  -5.2062  -5.1573  -5.0931  -4.9357  -4.8481
    -3.7168  -3.6795  -3.5129  -3.4994  -3.4980  -3.4932  -3.4526  -3.4062
    -3.3713  -3.1461  -3.0917  -3.0243   5.5820   5.6387   5.9900   6.0087
     6.1268   6.2597   6.3560   6.5466   6.6417   6.9291   7.1938   7.5069
     7.5584   7.6043   7.8724   8.0724   8.0849   8.1853   8.2238   8.8393
     8.9290   8.9852   9.0402   9.2646   9.2999   9.3181   9.5464   9.6587
     9.6991   9.7773   9.9481   9.9867  10.5259  10.5261  10.5930  10.6821
    12.7737  12.8895  12.9044  13.0171  14.8412  14.8984  15.0701  15.0729
    15.5392  15.8015  15.9354  15.9643  16.6057  16.8155  16.8422  16.8645
    17.0806  17.4852  18.1077  18.2299  18.2937  18.3014  18.3073  18.3658
    18.8420  18.9863  19.0293  19.1404  19.6260  19.7768  19.8271  19.9176
    19.9380  20.1585  20.1609  20.3175

     occupation numbers 
     1.0000   1.0000   1.0000   1.0000   1.0000   1.0000   1.0000   1.0000
     1.0000   1.0000   1.0000   1.0000   1.0000   1.0000   1.0000   1.0000
     1.0000   1.0000   1.0000   1.0000   1.0000   1.0000   1.0000   1.0000
     1.0000   1.0000   1.0000   1.0000   1.0000   1.0000   1.0000   1.0000
     1.0000   1.0000   1.0000   1.0000   1.0000   1.0000   1.0000   1.0000
     1.0000   1.0000   1.0000   1.0000   1.0000   1.0000   1.0000   1.0000
     1.0000   1.0000   1.0000   1.0000   1.0000   1.0000   1.0000   1.0000
     1.0000   1.0000   1.0000   1.0000   1.0000   1.0000   1.0000   1.0000
     1.0000   1.0000   1.0000   1.0000   1.0000   1.0000   1.0000   1.0000
     1.0000   1.0000   1.0000   1.0000   1.0000   1.0000   1.0000   1.0000
     1.0000   1.0000   1.0000   1.0000   0.0000   0.0000   0.0000   0.0000
     0.0000   0.0000   0.0000   0.0000   0.0000   0.0000   0.0000   0.0000
     0.0000   0.0000   0.0000   0.0000   0.0000   0.0000   0.0000   0.0000
     0.0000   0.0000   0.0000   0.0000   0.0000   0.0000   0.0000   0.0000
     0.0000   0.0000   0.0000   0.0000

          k = 0.0000 0.2000 0.2909 ( 19672 PWs)   bands (ev):

   -48.2458 -48.2451 -48.2435 -48.2429 -22.6953 -22.6819 -22.6545 -22.6444
   -22.5464 -22.5445 -22.5436 -22.5425 -22.4799 -22.4779 -22.4773 -22.4761
   -21.4622 -21.4511 -21.4371 -21.4309  -6.2545  -6.2388  -5.8557  -5.6210
    -5.4881  -5.4353  -5.4088  -5.3800  -5.1405  -5.1240  -5.0150  -4.9972
    -3.6886  -3.5772  -3.5083  -3.5031  -3.4862  -3.4795  -3.4437  -3.3278
    -3.2879  -3.2441  -3.1798  -3.1159   5.9955   6.0026   6.0790   6.1492
     6.4131   6.4339   6.4918   6.7798   6.8551   6.9415   7.1363   7.1940
     7.3652   7.4426   7.7181   7.7854   7.8343   7.9532   8.2413   8.3234
     8.5529   8.5629   9.1494   9.3403   9.4760   9.6308   9.6631   9.7606
     9.7663   9.8277   9.8303   9.9069  10.2271  10.2638  10.6120  10.6432
    12.8795  12.9555  13.5542  13.5690  14.3868  14.3896  15.1114  15.1488
    15.5141  15.5387  15.6266  15.7320  16.8414  16.8437  17.0914  17.3040
    17.6293  17.7443  17.8788  18.2471  18.3176  18.4033  18.4138  18.6778
    18.7806  19.1028  19.2170  19.3631  19.4531  19.4878  19.5156  19.7246
    19.8481  19.9940  20.0436  20.1333

     occupation numbers 
     1.0000   1.0000   1.0000   1.0000   1.0000   1.0000   1.0000   1.0000
     1.0000   1.0000   1.0000   1.0000   1.0000   1.0000   1.0000   1.0000
     1.0000   1.0000   1.0000   1.0000   1.0000   1.0000   1.0000   1.0000
     1.0000   1.0000   1.0000   1.0000   1.0000   1.0000   1.0000   1.0000
     1.0000   1.0000   1.0000   1.0000   1.0000   1.0000   1.0000   1.0000
     1.0000   1.0000   1.0000   1.0000   1.0000   1.0000   1.0000   1.0000
     1.0000   1.0000   1.0000   1.0000   1.0000   1.0000   1.0000   1.0000
     1.0000   1.0000   1.0000   1.0000   1.0000   1.0000   1.0000   1.0000
     1.0000   1.0000   1.0000   1.0000   1.0000   1.0000   1.0000   1.0000
     1.0000   1.0000   1.0000   1.0000   1.0000   1.0000   1.0000   1.0000
     1.0000   1.0000   1.0000   1.0000   0.1678   0.1597   0.0000   0.0000
     0.0000   0.0000   0.0000   0.0000   0.0000   0.0000   0.0000   0.0000
     0.0000   0.0000   0.0000   0.0000   0.0000   0.0000   0.0000   0.0000
     0.0000   0.0000   0.0000   0.0000   0.0000   0.0000   0.0000   0.0000
     0.0000   0.0000   0.0000   0.0000

          k = 0.0000 0.4000 0.0000 ( 19670 PWs)   bands (ev):

   -48.2458 -48.2450 -48.2436 -48.2428 -22.7333 -22.7269 -22.6060 -22.6038
   -22.5335 -22.5262 -22.5206 -22.5200 -22.5083 -22.5006 -22.4953 -22.4947
   -21.4595 -21.4478 -21.4365 -21.4307  -6.4329  -6.3747  -5.9987  -5.4924
    -5.4802  -5.3999  -5.3260  -5.3020  -5.2053  -5.0834  -5.0808  -4.9763
    -3.6906  -3.5940  -3.4538  -3.4238  -3.3927  -3.3782  -3.3653  -3.2779
    -3.2723  -3.2402  -3.1446  -3.1423   5.3141   5.3232   6.3047   6.4940
     6.6187   6.6919   6.7230   6.7268   6.9799   7.0104   7.0324   7.3310
     7.4553   7.5126   7.5609   7.6420   8.0275   8.0921   8.2082   8.2417
     8.4555   8.7521   8.7875   9.0741   9.0911   9.2789   9.5183   9.6537
     9.6924   9.8015   9.8945   9.9432  10.0855  10.2287  10.2532  10.4180
    13.2446  13.4649  13.7992  14.0734  14.0835  14.2586  14.7516  15.0812
    15.4647  15.4922  15.7550  15.8137  17.2047  17.3026  17.5446  17.6458
    18.1170  18.1546  18.2464  18.2970  18.6730  18.7008  18.7505  18.7853
    18.7996  18.9178  19.0430  19.2697  19.5835  19.5993  19.6767  19.8397
    19.8947  19.9678  19.9779  20.0009

     occupation numbers 
     1.0000   1.0000   1.0000   1.0000   1.0000   1.0000   1.0000   1.0000
     1.0000   1.0000   1.0000   1.0000   1.0000   1.0000   1.0000   1.0000
     1.0000   1.0000   1.0000   1.0000   1.0000   1.0000   1.0000   1.0000
     1.0000   1.0000   1.0000   1.0000   1.0000   1.0000   1.0000   1.0000
     1.0000   1.0000   1.0000   1.0000   1.0000   1.0000   1.0000   1.0000
     1.0000   1.0000   1.0000   1.0000   1.0000   1.0000   1.0000   1.0000
     1.0000   1.0000   1.0000   1.0000   1.0000   1.0000   1.0000   1.0000
     1.0000   1.0000   1.0000   1.0000   1.0000   1.0000   1.0000   1.0000
     1.0000   1.0000   1.0000   1.0000   1.0000   1.0000   1.0000   1.0000
     1.0000   1.0000   1.0000   1.0000   1.0000   1.0000   1.0000   1.0000
     1.0000   1.0000   1.0000   1.0518   1.0588   0.7830   0.0000   0.0000
     0.0000   0.0000   0.0000   0.0000   0.0000   0.0000   0.0000   0.0000
     0.0000   0.0000   0.0000   0.0000   0.0000   0.0000   0.0000   0.0000
     0.0000   0.0000   0.0000   0.0000   0.0000   0.0000   0.0000   0.0000
     0.0000   0.0000   0.0000   0.0000

          k = 0.0000 0.4000 0.1455 ( 19683 PWs)   bands (ev):

   -48.2456 -48.2448 -48.2439 -48.2430 -22.7214 -22.7153 -22.6185 -22.6158
   -22.5323 -22.5256 -22.5218 -22.5205 -22.5070 -22.5001 -22.4966 -22.4953
   -21.4572 -21.4461 -21.4386 -21.4324  -6.3479  -6.2796  -5.9873  -5.5316
    -5.4969  -5.3832  -5.2993  -5.2963  -5.2261  -5.1847  -5.1537  -5.0195
    -3.6377  -3.5723  -3.4881  -3.4792  -3.4760  -3.4098  -3.3383  -3.2764
    -3.2547  -3.2220  -3.1202  -3.1189   5.6202   5.6287   6.3521   6.5784
     6.6056   6.6934   6.7086   6.8186   7.0295   7.0549   7.0895   7.2509
     7.4206   7.5504   7.5543   7.6504   7.7220   7.8967   7.9960   8.0791
     8.3800   8.4332   8.7840   8.9616   9.3877   9.3954   9.5584   9.6582
     9.6768   9.7175   9.9380   9.9406  10.0640  10.1824  10.2543  10.4107
    13.4187  13.5925  13.8305  14.0568  14.1906  14.3451  14.7846  15.0505
    15.2242  15.2296  15.5495  15.5781  17.4034  17.6652  17.7207  18.1133
    18.1166  18.2578  18.2652  18.2964  18.6031  18.6303  18.7759  18.8061
    18.8080  18.8145  18.8196  19.0685  19.7041  19.7224  19.7663  19.7807
    19.8628  19.8869  19.9909  20.0304

     occupation numbers 
     1.0000   1.0000   1.0000   1.0000   1.0000   1.0000   1.0000   1.0000
     1.0000   1.0000   1.0000   1.0000   1.0000   1.0000   1.0000   1.0000
     1.0000   1.0000   1.0000   1.0000   1.0000   1.0000   1.0000   1.0000
     1.0000   1.0000   1.0000   1.0000   1.0000   1.0000   1.0000   1.0000
     1.0000   1.0000   1.0000   1.0000   1.0000   1.0000   1.0000   1.0000
     1.0000   1.0000   1.0000   1.0000   1.0000   1.0000   1.0000   1.0000
     1.0000   1.0000   1.0000   1.0000   1.0000   1.0000   1.0000   1.0000
     1.0000   1.0000   1.0000   1.0000   1.0000   1.0000   1.0000   1.0000
     1.0000   1.0000   1.0000   1.0000   1.0000   1.0000   1.0000   1.0000
     1.0000   1.0000   1.0000   1.0000   1.0000   1.0000   1.0000   1.0000
     1.0000   1.0000   1.0000   1.0407   1.0336   0.3269   0.0000   0.0000
     0.0000   0.0000   0.0000   0.0000   0.0000   0.0000   0.0000   0.0000
     0.0000   0.0000   0.0000   0.0000   0.0000   0.0000   0.0000   0.0000
     0.0000   0.0000   0.0000   0.0000   0.0000   0.0000   0.0000   0.0000
     0.0000   0.0000   0.0000   0.0000

          k = 0.0000 0.4000 0.2909 ( 19689 PWs)   bands (ev):

   -48.2451 -48.2444 -48.2442 -48.2435 -22.6901 -22.6849 -22.6508 -22.6469
   -22.5290 -22.5250 -22.5240 -22.5221 -22.5037 -22.4997 -22.4986 -22.4968
   -21.4513 -21.4443 -21.4419 -21.4366  -6.1447  -6.0262  -5.9974  -5.7196
    -5.5114  -5.4028  -5.3378  -5.2815  -5.2781  -5.2481  -5.2244  -5.1193
    -3.5612  -3.5510  -3.5184  -3.5125  -3.4855  -3.4565  -3.4317  -3.3763
    -3.1591  -3.1482  -3.1108  -3.1101   6.3801   6.4002   6.4692   6.5558
     6.6973   6.7026   6.8337   7.0026   7.0320   7.0544   7.2145   7.3022
     7.3046   7.3702   7.4300   7.4435   7.4954   7.6893   7.6965   7.9170
     7.9388   7.9505   8.3974   8.4887   9.6857   9.7119   9.7131   9.7235
     9.7526   9.7960   9.9932   9.9956  10.0069  10.0202  10.2803  10.3584
    13.8599  13.9743  13.9843  13.9974  14.5439  14.6207  14.6221  14.6273
    14.8696  14.9662  15.0661  15.0789  17.8143  17.9842  18.1812  18.2685
    18.2947  18.3297  18.4212  18.5004  18.5150  18.5324  18.6006  18.7693
    18.7760  18.8295  18.8440  19.2313  19.6738  19.6910  19.7447  19.7913
    19.8594  19.8953  19.9881  20.0017

     occupation numbers 
     1.0000   1.0000   1.0000   1.0000   1.0000   1.0000   1.0000   1.0000
     1.0000   1.0000   1.0000   1.0000   1.0000   1.0000   1.0000   1.0000
     1.0000   1.0000   1.0000   1.0000   1.0000   1.0000   1.0000   1.0000
     1.0000   1.0000   1.0000   1.0000   1.0000   1.0000   1.0000   1.0000
     1.0000   1.0000   1.0000   1.0000   1.0000   1.0000   1.0000   1.0000
     1.0000   1.0000   1.0000   1.0000   1.0000   1.0000   1.0000   1.0000
     1.0000   1.0000   1.0000   1.0000   1.0000   1.0000   1.0000   1.0000
     1.0000   1.0000   1.0000   1.0000   1.0000   1.0000   1.0000   1.0000
     1.0000   1.0000   1.0000   1.0000   1.0000   1.0000   1.0000   1.0000
     1.0000   1.0000   1.0000   1.0000   1.0000   1.0000   1.0000   1.0000
     1.0002   1.0070   1.0091   1.0126   0.0028   0.0002   0.0001   0.0001
     0.0000   0.0000   0.0000   0.0000   0.0000   0.0000   0.0000   0.0000
     0.0000   0.0000   0.0000   0.0000   0.0000   0.0000   0.0000   0.0000
     0.0000   0.0000   0.0000   0.0000   0.0000   0.0000   0.0000   0.0000
     0.0000   0.0000   0.0000   0.0000

          k = 0.2000 0.2000 0.0000 ( 19699 PWs)   bands (ev):

   -48.2463 -48.2445 -48.2441 -48.2423 -22.7375 -22.7239 -22.6072 -22.6025
   -22.5611 -22.5496 -22.5250 -22.5188 -22.5078 -22.4964 -22.4706 -22.4651
   -21.4684 -21.4435 -21.4389 -21.4268  -6.4666  -6.3308  -6.2486  -5.6531
    -5.3819  -5.3321  -5.3315  -5.0995  -5.0790  -5.0484  -5.0453  -4.9436
    -3.6737  -3.5477  -3.5220  -3.5093  -3.4693  -3.4639  -3.4059  -3.3666
    -3.3250  -3.1673  -3.0552  -3.0228   5.2897   5.3280   5.8102   5.8893
     6.2202   6.3687   6.6043   6.7199   6.7695   6.9916   7.0739   7.5296
     7.5761   7.6423   7.8921   7.9536   8.0629   8.1718   8.3453   8.8177
     8.8571   8.9895   9.0228   9.1089   9.1321   9.3414   9.3802   9.4199
     9.6564   9.7724  10.1326  10.1415  10.3438  10.3820  10.3890  10.7650
    12.3048  13.3205  13.3261  13.4831  14.1950  15.0025  15.3327  15.3689
    15.4147  15.6710  15.8727  16.2210  16.3728  16.7335  16.9279  17.0078
    17.5098  17.7636  17.8257  18.0240  18.4545  18.6680  18.7019  18.7027
    18.9199  18.9912  19.2719  19.3411  19.4015  19.5873  19.8309  19.9603
    19.9635  20.0196  20.3053  20.4266

     occupation numbers 
     1.0000   1.0000   1.0000   1.0000   1.0000   1.0000   1.0000   1.0000
     1.0000   1.0000   1.0000   1.0000   1.0000   1.0000   1.0000   1.0000
     1.0000   1.0000   1.0000   1.0000   1.0000   1.0000   1.0000   1.0000
     1.0000   1.0000   1.0000   1.0000   1.0000   1.0000   1.0000   1.0000
     1.0000   1.0000   1.0000   1.0000   1.0000   1.0000   1.0000   1.0000
     1.0000   1.0000   1.0000   1.0000   1.0000   1.0000   1.0000   1.0000
     1.0000   1.0000   1.0000   1.0000   1.0000   1.0000   1.0000   1.0000
     1.0000   1.0000   1.0000   1.0000   1.0000   1.0000   1.0000   1.0000
     1.0000   1.0000   1.0000   1.0000   1.0000   1.0000   1.0000   1.0000
     1.0000   1.0000   1.0000   1.0000   1.0000   1.0000   1.0000   1.0000
     1.0000   1.0000   1.0000   1.0000   1.0239   0.0000   0.0000   0.0000
     0.0000   0.0000   0.0000   0.0000   0.0000   0.0000   0.0000   0.0000
     0.0000   0.0000   0.0000   0.0000   0.0000   0.0000   0.0000   0.0000
     0.0000   0.0000   0.0000   0.0000   0.0000   0.0000   0.0000   0.0000
     0.0000   0.0000   0.0000   0.0000

          k = 0.2000 0.2000 0.1455 ( 19703 PWs)   bands (ev):

   -48.2461 -48.2443 -48.2443 -48.2425 -22.7254 -22.7125 -22.6201 -22.6143
   -22.5600 -22.5507 -22.5244 -22.5194 -22.5067 -22.4974 -22.4701 -22.4656
   -21.4655 -21.4419 -21.4416 -21.4284  -6.3943  -6.2333  -6.2270  -5.6507
    -5.3470  -5.3445  -5.3444  -5.2905  -5.1512  -5.0822  -5.0017  -4.9540
    -3.7084  -3.5165  -3.5087  -3.4749  -3.4695  -3.4508  -3.4217  -3.3790
    -3.3016  -3.1598  -3.1025  -3.0510   5.5578   5.6333   5.8107   5.9300
     6.2874   6.4161   6.7104   6.7514   6.7699   7.0339   7.0406   7.4835
     7.5570   7.6421   7.6618   7.7318   8.0577   8.1216   8.1263   8.6068
     8.8646   8.8698   8.8908   9.2105   9.3446   9.3526   9.4043   9.5715
     9.6715   9.8063   9.8688  10.0045  10.2679  10.3593  10.3930  10.6865
    12.6631  13.3470  13.4481  13.4635  14.3170  15.0645  15.0695  15.1553
    15.3995  15.6424  15.6563  16.0295  16.5818  16.9021  16.9958  17.1073
    17.7818  17.9392  18.2074  18.2190  18.5006  18.5038  18.6742  18.7165
    18.8015  18.9833  19.1908  19.3081  19.3396  19.4676  19.8262  19.9212
    20.0404  20.1186  20.1910  20.2355

     occupation numbers 
     1.0000   1.0000   1.0000   1.0000   1.0000   1.0000   1.0000   1.0000
     1.0000   1.0000   1.0000   1.0000   1.0000   1.0000   1.0000   1.0000
     1.0000   1.0000   1.0000   1.0000   1.0000   1.0000   1.0000   1.0000
     1.0000   1.0000   1.0000   1.0000   1.0000   1.0000   1.0000   1.0000
     1.0000   1.0000   1.0000   1.0000   1.0000   1.0000   1.0000   1.0000
     1.0000   1.0000   1.0000   1.0000   1.0000   1.0000   1.0000   1.0000
     1.0000   1.0000   1.0000   1.0000   1.0000   1.0000   1.0000   1.0000
     1.0000   1.0000   1.0000   1.0000   1.0000   1.0000   1.0000   1.0000
     1.0000   1.0000   1.0000   1.0000   1.0000   1.0000   1.0000   1.0000
     1.0000   1.0000   1.0000   1.0000   1.0000   1.0000   1.0000   1.0000
     1.0000   1.0000   1.0000   1.0000   0.4672   0.0000   0.0000   0.0000
     0.0000   0.0000   0.0000   0.0000   0.0000   0.0000   0.0000   0.0000
     0.0000   0.0000   0.0000   0.0000   0.0000   0.0000   0.0000   0.0000
     0.0000   0.0000   0.0000   0.0000   0.0000   0.0000   0.0000   0.0000
     0.0000   0.0000   0.0000   0.0000

          k = 0.2000 0.2000 0.2909 ( 19694 PWs)   bands (ev):

   -48.2455 -48.2449 -48.2437 -48.2431 -22.6934 -22.6825 -22.6532 -22.6450
   -22.5571 -22.5536 -22.5228 -22.5209 -22.5037 -22.5002 -22.4687 -22.4670
   -21.4579 -21.4488 -21.4377 -21.4326  -6.2474  -6.1934  -5.9691  -5.6197
    -5.6069  -5.4308  -5.3613  -5.3355  -5.2390  -5.0967  -5.0381  -4.9879
    -3.6971  -3.6032  -3.5021  -3.4841  -3.4233  -3.4017  -3.3875  -3.2871
    -3.2288  -3.2262  -3.1906  -3.1275   5.7947   5.8104   6.4210   6.4524
     6.4657   6.5076   6.7619   6.8173   6.9665   7.0101   7.1198   7.2381
     7.2614   7.2912   7.4699   7.7434   7.8097   7.9272   7.9959   8.0291
     8.2986   8.5819   8.9989   9.2043   9.4622   9.5316   9.7104   9.7222
     9.8076   9.8271   9.8557   9.8696  10.0475  10.2332  10.4139  10.5004
    13.3038  13.4117  13.5497  13.8776  14.3757  14.5367  14.6692  15.1720
    15.2775  15.4795  15.5587  15.6431  16.8287  16.9473  17.3771  17.5548
    18.0074  18.1258  18.1538  18.5579  18.6603  18.6713  18.7155  18.7700
    18.8212  18.9656  19.1844  19.3215  19.4055  19.5034  19.5702  19.6012
    19.6693  19.9413  20.1951  20.2243

     occupation numbers 
     1.0000   1.0000   1.0000   1.0000   1.0000   1.0000   1.0000   1.0000
     1.0000   1.0000   1.0000   1.0000   1.0000   1.0000   1.0000   1.0000
     1.0000   1.0000   1.0000   1.0000   1.0000   1.0000   1.0000   1.0000
     1.0000   1.0000   1.0000   1.0000   1.0000   1.0000   1.0000   1.0000
     1.0000   1.0000   1.0000   1.0000   1.0000   1.0000   1.0000   1.0000
     1.0000   1.0000   1.0000   1.0000   1.0000   1.0000   1.0000   1.0000
     1.0000   1.0000   1.0000   1.0000   1.0000   1.0000   1.0000   1.0000
     1.0000   1.0000   1.0000   1.0000   1.0000   1.0000   1.0000   1.0000
     1.0000   1.0000   1.0000   1.0000   1.0000   1.0000   1.0000   1.0000
     1.0000   1.0000   1.0000   1.0000   1.0000   1.0000   1.0000   1.0000
     1.0000   1.0000   1.0000   1.0003   0.2039   0.0036   0.0000   0.0000
     0.0000   0.0000   0.0000   0.0000   0.0000   0.0000   0.0000   0.0000
     0.0000   0.0000   0.0000   0.0000   0.0000   0.0000   0.0000   0.0000
     0.0000   0.0000   0.0000   0.0000   0.0000   0.0000   0.0000   0.0000
     0.0000   0.0000   0.0000   0.0000

          k = 0.2000 0.4000 0.0000 ( 19693 PWs)   bands (ev):

   -48.2457 -48.2450 -48.2436 -48.2429 -22.7317 -22.7265 -22.6058 -22.6040
   -22.5581 -22.5429 -22.5379 -22.5226 -22.4991 -22.4928 -22.4782 -22.4722
   -21.4550 -21.4456 -21.4372 -21.4326  -6.5260  -6.4777  -5.9487  -5.6071
    -5.5134  -5.5041  -5.2117  -5.1585  -5.1536  -5.1219  -5.0719  -5.0236
    -3.5858  -3.5061  -3.4613  -3.4526  -3.4284  -3.3323  -3.3190  -3.2835
    -3.2649  -3.1616  -3.1183  -3.0708   5.3023   5.3167   6.0256   6.0754
     6.1332   6.1415   6.7423   6.8172   6.9381   6.9901   7.2567   7.3389
     7.5789   7.7478   7.8200   8.0205   8.0685   8.2261   8.2300   8.2393
     8.6470   8.6820   8.7634   8.9982   9.2094   9.3233   9.4371   9.5019
     9.6163   9.7671   9.8774   9.8980   9.9185   9.9334  10.3050  10.6358
    12.6812  13.4203  14.1297  14.1802  14.3507  14.7603  14.9091  15.1519
    15.3886  15.5800  15.6416  15.9824  16.7708  17.3971  17.4431  17.6433
    17.7343  18.1887  18.2841  18.3296  18.6193  19.0023  19.0392  19.0936
    19.1028  19.1479  19.2878  19.3091  19.4079  19.4451  19.5025  19.5809
    19.8378  20.0530  20.1087  20.1145

     occupation numbers 
     1.0000   1.0000   1.0000   1.0000   1.0000   1.0000   1.0000   1.0000
     1.0000   1.0000   1.0000   1.0000   1.0000   1.0000   1.0000   1.0000
     1.0000   1.0000   1.0000   1.0000   1.0000   1.0000   1.0000   1.0000
     1.0000   1.0000   1.0000   1.0000   1.0000   1.0000   1.0000   1.0000
     1.0000   1.0000   1.0000   1.0000   1.0000   1.0000   1.0000   1.0000
     1.0000   1.0000   1.0000   1.0000   1.0000   1.0000   1.0000   1.0000
     1.0000   1.0000   1.0000   1.0000   1.0000   1.0000   1.0000   1.0000
     1.0000   1.0000   1.0000   1.0000   1.0000   1.0000   1.0000   1.0000
     1.0000   1.0000   1.0000   1.0000   1.0000   1.0000   1.0000   1.0000
     1.0000   1.0000   1.0000   1.0000   1.0000   1.0000   1.0000   1.0000
     1.0000   1.0000   1.0826   1.0525   0.3019   0.0000   0.0000   0.0000
     0.0000   0.0000   0.0000   0.0000   0.0000   0.0000   0.0000   0.0000
     0.0000   0.0000   0.0000   0.0000   0.0000   0.0000   0.0000   0.0000
     0.0000   0.0000   0.0000   0.0000   0.0000   0.0000   0.0000   0.0000
     0.0000   0.0000   0.0000   0.0000

          k = 0.2000 0.4000 0.1455 ( 19701 PWs)   bands (ev):

   -48.2455 -48.2448 -48.2438 -48.2431 -22.7199 -22.7150 -22.6181 -22.6159
   -22.5566 -22.5443 -22.5364 -22.5241 -22.4985 -22.4934 -22.4777 -22.4728
   -21.4532 -21.4444 -21.4389 -21.4338  -6.4433  -6.3869  -5.9586  -5.5967
    -5.5870  -5.4719  -5.2751  -5.2047  -5.1816  -5.1480  -5.0660  -5.0319
    -3.5868  -3.5021  -3.5017  -3.4987  -3.3970  -3.3720  -3.2987  -3.2737
    -3.2241  -3.1619  -3.1156  -3.0931   5.5973   5.6212   6.0728   6.0753
     6.2015   6.2352   6.7289   6.8365   6.9653   7.0021   7.3275   7.3370
     7.5433   7.6401   7.6657   7.7823   7.9542   8.0258   8.0278   8.1701
     8.2996   8.9331   8.9599   9.1674   9.2539   9.3548   9.5077   9.5124
     9.5311   9.6158   9.7700   9.8151   9.9231   9.9399  10.2877  10.5744
    12.9595  13.6019  14.1896  14.1991  14.3314  14.8123  14.9343  15.1284
    15.1299  15.3411  15.4141  15.7848  17.0681  17.5846  17.7181  17.7911
    17.8144  18.3006  18.3813  18.4463  18.6073  18.8331  19.0235  19.0367
    19.0599  19.0817  19.3066  19.3338  19.3739  19.4705  19.6223  19.6534
    19.8021  19.8467  19.9773  20.1606

     occupation numbers 
     1.0000   1.0000   1.0000   1.0000   1.0000   1.0000   1.0000   1.0000
     1.0000   1.0000   1.0000   1.0000   1.0000   1.0000   1.0000   1.0000
     1.0000   1.0000   1.0000   1.0000   1.0000   1.0000   1.0000   1.0000
     1.0000   1.0000   1.0000   1.0000   1.0000   1.0000   1.0000   1.0000
     1.0000   1.0000   1.0000   1.0000   1.0000   1.0000   1.0000   1.0000
     1.0000   1.0000   1.0000   1.0000   1.0000   1.0000   1.0000   1.0000
     1.0000   1.0000   1.0000   1.0000   1.0000   1.0000   1.0000   1.0000
     1.0000   1.0000   1.0000   1.0000   1.0000   1.0000   1.0000   1.0000
     1.0000   1.0000   1.0000   1.0000   1.0000   1.0000   1.0000   1.0000
     1.0000   1.0000   1.0000   1.0000   1.0000   1.0000   1.0000   1.0000
     1.0000   1.0000   1.0356   1.0142   0.3925   0.0000   0.0000   0.0000
     0.0000   0.0000   0.0000   0.0000   0.0000   0.0000   0.0000   0.0000
     0.0000   0.0000   0.0000   0.0000   0.0000   0.0000   0.0000   0.0000
     0.0000   0.0000   0.0000   0.0000   0.0000   0.0000   0.0000   0.0000
     0.0000   0.0000   0.0000   0.0000

          k = 0.2000 0.4000 0.2909 ( 19706 PWs)   bands (ev):

   -48.2450 -48.2443 -48.2443 -48.2436 -22.6889 -22.6847 -22.6500 -22.6469
   -22.5528 -22.5481 -22.5325 -22.5278 -22.4969 -22.4950 -22.4762 -22.4743
   -21.4487 -21.4432 -21.4411 -21.4371  -6.2372  -6.1447  -6.0374  -5.8395
    -5.5285  -5.4206  -5.3844  -5.2780  -5.2135  -5.1981  -5.0747  -5.0550
    -3.5948  -3.5741  -3.5092  -3.4990  -3.3632  -3.3502  -3.3460  -3.2801
    -3.1622  -3.1497  -3.1278  -3.1257   6.0318   6.0647   6.3368   6.3738
     6.5073   6.5912   6.6743   6.7503   6.9663   7.0858   7.1664   7.3205
     7.3419   7.4103   7.5091   7.5157   7.6095   7.7517   7.8809   8.0332
     8.0795   8.3309   8.9115   8.9770   9.4365   9.5369   9.5756   9.6144
     9.6185   9.7307   9.7489   9.8957   9.9265  10.0372  10.1937  10.3624
    13.6393  14.1000  14.2513  14.2596  14.4366  14.4956  14.7549  14.9060
    14.9955  15.0064  15.0757  15.3660  17.4678  17.6479  17.9766  18.1883
    18.4501  18.4982  18.5588  18.6236  18.6818  18.6882  18.7862  18.8570
    18.8947  19.0810  19.0909  19.2417  19.4680  19.5378  19.6162  19.7213
    19.7373  19.9827  20.0131  20.1614

     occupation numbers 
     1.0000   1.0000   1.0000   1.0000   1.0000   1.0000   1.0000   1.0000
     1.0000   1.0000   1.0000   1.0000   1.0000   1.0000   1.0000   1.0000
     1.0000   1.0000   1.0000   1.0000   1.0000   1.0000   1.0000   1.0000
     1.0000   1.0000   1.0000   1.0000   1.0000   1.0000   1.0000   1.0000
     1.0000   1.0000   1.0000   1.0000   1.0000   1.0000   1.0000   1.0000
     1.0000   1.0000   1.0000   1.0000   1.0000   1.0000   1.0000   1.0000
     1.0000   1.0000   1.0000   1.0000   1.0000   1.0000   1.0000   1.0000
     1.0000   1.0000   1.0000   1.0000   1.0000   1.0000   1.0000   1.0000
     1.0000   1.0000   1.0000   1.0000   1.0000   1.0000   1.0000   1.0000
     1.0000   1.0000   1.0000   1.0000   1.0000   1.0000   1.0000   1.0000
     1.0000   1.0697   0.8194   0.7779   0.0605   0.0130   0.0000   0.0000
     0.0000   0.0000   0.0000   0.0000   0.0000   0.0000   0.0000   0.0000
     0.0000   0.0000   0.0000   0.0000   0.0000   0.0000   0.0000   0.0000
     0.0000   0.0000   0.0000   0.0000   0.0000   0.0000   0.0000   0.0000
     0.0000   0.0000   0.0000   0.0000

          k = 0.4000 0.4000 0.0000 ( 19724 PWs)   bands (ev):

   -48.2455 -48.2453 -48.2434 -48.2431 -22.7285 -22.7265 -22.6052 -22.6045
   -22.5717 -22.5641 -22.5521 -22.5444 -22.4765 -22.4710 -22.4685 -22.4631
   -21.4467 -21.4431 -21.4378 -21.4361  -6.6437  -6.6249  -5.8075  -5.6479
    -5.6235  -5.6095  -5.2598  -5.2569  -5.2210  -5.1953  -4.8311  -4.7946
    -3.5013  -3.4622  -3.4478  -3.4388  -3.4386  -3.4303  -3.2325  -3.2087
    -3.1362  -3.0855  -3.0322  -3.0019   5.2844   5.2986   5.7324   5.7613
     5.8336   5.8798   6.0917   6.1276   7.1769   7.3309   7.5380   7.5556
     7.7176   7.9858   8.0700   8.1653   8.2243   8.2955   8.3190   8.3458
     8.4494   8.4851   8.8583   8.9451   9.2466   9.2578   9.3226   9.3859
     9.4917   9.5290   9.6921   9.8537  10.0191  10.0288  10.6100  10.7162
    12.4222  12.7474  14.7449  14.7809  14.8408  14.9876  15.0430  15.1437
    15.3495  15.4153  15.8759  16.0323  16.4157  16.7756  17.3920  17.7758
    17.8074  17.9667  18.1039  18.3439  18.8870  18.9385  18.9843  18.9936
    19.0734  19.1952  19.2286  19.3924  19.9126  19.9968  20.0547  20.1404
    20.2249  20.2407  20.3246  20.3851

     occupation numbers 
     1.0000   1.0000   1.0000   1.0000   1.0000   1.0000   1.0000   1.0000
     1.0000   1.0000   1.0000   1.0000   1.0000   1.0000   1.0000   1.0000
     1.0000   1.0000   1.0000   1.0000   1.0000   1.0000   1.0000   1.0000
     1.0000   1.0000   1.0000   1.0000   1.0000   1.0000   1.0000   1.0000
     1.0000   1.0000   1.0000   1.0000   1.0000   1.0000   1.0000   1.0000
     1.0000   1.0000   1.0000   1.0000   1.0000   1.0000   1.0000   1.0000
     1.0000   1.0000   1.0000   1.0000   1.0000   1.0000   1.0000   1.0000
     1.0000   1.0000   1.0000   1.0000   1.0000   1.0000   1.0000   1.0000
     1.0000   1.0000   1.0000   1.0000   1.0000   1.0000   1.0000   1.0000
     1.0000   1.0000   1.0000   1.0000   1.0000   1.0000   1.0000   1.0000
     1.0000   1.0000   0.0000   0.0000   0.0000   0.0000   0.0000   0.0000
     0.0000   0.0000   0.0000   0.0000   0.0000   0.0000   0.0000   0.0000
     0.0000   0.0000   0.0000   0.0000   0.0000   0.0000   0.0000   0.0000
     0.0000   0.0000   0.0000   0.0000   0.0000   0.0000   0.0000   0.0000
     0.0000   0.0000   0.0000   0.0000

          k = 0.4000 0.4000 0.1455 ( 19691 PWs)   bands (ev):

   -48.2453 -48.2450 -48.2436 -48.2433 -22.7169 -22.7150 -22.6172 -22.6163
   -22.5698 -22.5622 -22.5540 -22.5463 -22.4759 -22.4715 -22.4680 -22.4636
   -21.4458 -21.4425 -21.4387 -21.4367  -6.5604  -6.5387  -5.8748  -5.7432
    -5.6149  -5.5729  -5.3164  -5.2697  -5.1828  -5.1597  -4.8834  -4.8358
    -3.5066  -3.4946  -3.4773  -3.4372  -3.4074  -3.3419  -3.2312  -3.2170
    -3.1457  -3.1081  -3.0561  -3.0344   5.5527   5.5925   5.8303   5.8463
     5.8749   5.9265   6.0869   6.1573   7.2471   7.3308   7.4016   7.5201
     7.5628   7.7542   7.7671   7.8837   8.0066   8.1796   8.2097   8.2513
     8.7646   8.9542   9.0789   9.1764   9.2569   9.3312   9.3386   9.4070
     9.4490   9.4826   9.4857   9.6981   9.7316   9.8780  10.5538  10.6426
    12.7695  13.0282  14.7712  14.7866  14.8303  15.0156  15.0548  15.0929
    15.1350  15.1603  15.6821  15.8528  16.6810  17.0810  17.3739  17.7930
    17.9453  18.1388  18.2296  18.4422  18.9528  19.0014  19.0769  19.1281
    19.1865  19.2507  19.2691  19.3358  19.9236  19.9246  19.9660  20.0059
    20.0707  20.1444  20.1805  20.2217

     occupation numbers 
     1.0000   1.0000   1.0000   1.0000   1.0000   1.0000   1.0000   1.0000
     1.0000   1.0000   1.0000   1.0000   1.0000   1.0000   1.0000   1.0000
     1.0000   1.0000   1.0000   1.0000   1.0000   1.0000   1.0000   1.0000
     1.0000   1.0000   1.0000   1.0000   1.0000   1.0000   1.0000   1.0000
     1.0000   1.0000   1.0000   1.0000   1.0000   1.0000   1.0000   1.0000
     1.0000   1.0000   1.0000   1.0000   1.0000   1.0000   1.0000   1.0000
     1.0000   1.0000   1.0000   1.0000   1.0000   1.0000   1.0000   1.0000
     1.0000   1.0000   1.0000   1.0000   1.0000   1.0000   1.0000   1.0000
     1.0000   1.0000   1.0000   1.0000   1.0000   1.0000   1.0000   1.0000
     1.0000   1.0000   1.0000   1.0000   1.0000   1.0000   1.0000   1.0000
     1.0000   1.0000   0.0000   0.0000   0.0000   0.0000   0.0000   0.0000
     0.0000   0.0000   0.0000   0.0000   0.0000   0.0000   0.0000   0.0000
     0.0000   0.0000   0.0000   0.0000   0.0000   0.0000   0.0000   0.0000
     0.0000   0.0000   0.0000   0.0000   0.0000   0.0000   0.0000   0.0000
     0.0000   0.0000   0.0000   0.0000

          k = 0.4000 0.4000 0.2909 ( 19726 PWs)   bands (ev):

   -48.2448 -48.2445 -48.2441 -48.2438 -22.6865 -22.6849 -22.6484 -22.6472
   -22.5649 -22.5589 -22.5572 -22.5512 -22.4746 -22.4729 -22.4666 -22.4649
   -21.4436 -21.4409 -21.4407 -21.4385  -6.3417  -6.3082  -6.0755  -6.0100
    -5.5245  -5.4731  -5.4090  -5.3485  -5.1200  -5.0642  -5.0039  -4.9406
    -3.5272  -3.5087  -3.4770  -3.4551  -3.3152  -3.2480  -3.2353  -3.1956
    -3.1805  -3.1458  -3.1145  -3.1119   5.7939   5.8207   6.0262   6.0720
     6.1803   6.2261   6.5127   6.5582   6.7071   6.8028   7.4412   7.4738
     7.5198   7.5914   7.6201   7.6745   7.7275   7.8273   7.9020   8.0847
     8.9166   8.9869   9.0520   9.0931   9.2735   9.3339   9.3818   9.3912
     9.4787   9.4812   9.5401   9.6375   9.8972   9.9094  10.3452  10.3866
    13.5477  13.7119  14.4046  14.5115  14.8025  14.8257  14.9211  15.0798
    15.1114  15.1579  15.2669  15.4713  17.0825  17.2951  17.5549  17.7701
    18.3009  18.5683  18.6239  18.7061  18.7664  18.9576  19.2056  19.2169
    19.3341  19.3678  19.3988  19.4810  19.4925  19.6866  19.8089  19.8943
    19.8948  20.0897  20.1275  20.2137

     occupation numbers 
     1.0000   1.0000   1.0000   1.0000   1.0000   1.0000   1.0000   1.0000
     1.0000   1.0000   1.0000   1.0000   1.0000   1.0000   1.0000   1.0000
     1.0000   1.0000   1.0000   1.0000   1.0000   1.0000   1.0000   1.0000
     1.0000   1.0000   1.0000   1.0000   1.0000   1.0000   1.0000   1.0000
     1.0000   1.0000   1.0000   1.0000   1.0000   1.0000   1.0000   1.0000
     1.0000   1.0000   1.0000   1.0000   1.0000   1.0000   1.0000   1.0000
     1.0000   1.0000   1.0000   1.0000   1.0000   1.0000   1.0000   1.0000
     1.0000   1.0000   1.0000   1.0000   1.0000   1.0000   1.0000   1.0000
     1.0000   1.0000   1.0000   1.0000   1.0000   1.0000   1.0000   1.0000
     1.0000   1.0000   1.0000   1.0000   1.0000   1.0000   1.0000   1.0000
     1.0000   1.0000   0.1200   0.0081   0.0000   0.0000   0.0000   0.0000
     0.0000   0.0000   0.0000   0.0000   0.0000   0.0000   0.0000   0.0000
     0.0000   0.0000   0.0000   0.0000   0.0000   0.0000   0.0000   0.0000
     0.0000   0.0000   0.0000   0.0000   0.0000   0.0000   0.0000   0.0000
     0.0000   0.0000   0.0000   0.0000

     the Fermi energy is    14.3298 ev

!    total energy              =   -2923.87116168 Ry
     total all-electron energy =    -59563.397863 Ry
     estimated scf accuracy    <          6.5E-11 Ry
     smearing contrib. (-TS)   =      -0.00051294 Ry
     internal energy E=F+TS    =   -2923.87064874 Ry

     The total energy is F=E-TS. E is the sum of the following terms:
     one-electron contribution =    -263.30210230 Ry
     hartree contribution      =     244.48314880 Ry
     xc contribution           =    -239.89583768 Ry
     ewald contribution        =    -946.62098220 Ry
     one-center paw contrib.   =   -1718.53487535 Ry
      -> PAW hartree energy AE =      34.98267583 Ry
      -> PAW hartree energy PS =     -34.78261580 Ry
      -> PAW xc energy AE      =    -201.59919242 Ry
      -> PAW xc energy PS      =      17.12904205 Ry
      -> total E_H with PAW    =     244.68320883 Ry
      -> total E_XC with PAW   =    -424.36598806 Ry

     convergence has been achieved in  21 iterations

     Writing all to output data dir ./out/smo.save/ :
     XML data file, charge density, pseudopotentials, collected wavefunctions

     init_run     :      4.18s CPU      4.45s WALL (       1 calls)
     electrons    :    207.75s CPU    215.99s WALL (       1 calls)

     Called by init_run:
     wfcinit      :      3.29s CPU      3.36s WALL (       1 calls)
     wfcinit:atom :      0.03s CPU      0.03s WALL (      18 calls)
     wfcinit:wfcr :      3.11s CPU      3.17s WALL (      18 calls)
     potinit      :      0.15s CPU      0.16s WALL (       1 calls)
     hinit0       :      0.29s CPU      0.32s WALL (       1 calls)

     Called by electrons:
     c_bands      :    180.26s CPU    182.67s WALL (      21 calls)
     sum_band     :     23.41s CPU     26.79s WALL (      21 calls)
     v_of_rho     :      0.10s CPU      0.10s WALL (      22 calls)
     v_h          :      0.05s CPU      0.06s WALL (      22 calls)
     v_xc         :      0.04s CPU      0.05s WALL (      22 calls)
     newd         :      3.34s CPU      5.86s WALL (      22 calls)
     PAW_pot      :      0.61s CPU      0.63s WALL (      22 calls)
     mix_rho      :      0.14s CPU      0.15s WALL (      21 calls)

     Called by c_bands:
     init_us_2    :      1.78s CPU      1.80s WALL (     774 calls)
     init_us_2:cp :      1.78s CPU      1.79s WALL (     774 calls)
     cegterg      :    175.80s CPU    178.14s WALL (     378 calls)

     Called by sum_band:
     sum_band:wei :      0.03s CPU      0.03s WALL (      21 calls)
     sum_band:loo :     19.06s CPU     19.50s WALL (      21 calls)
     sum_band:buf :      0.47s CPU      0.51s WALL (     378 calls)
     sum_band:ini :      0.83s CPU      0.83s WALL (     378 calls)
     sum_band:cal :      3.49s CPU      3.70s WALL (     378 calls)
     sum_band:bec :      0.11s CPU      0.11s WALL (     378 calls)
     addusdens    :      3.89s CPU      6.82s WALL (      21 calls)
                                        0.00s GPU  (      21 calls)
     addusd:skk   :      0.05s CPU      0.05s WALL (      63 calls)
                                        0.00s GPU  (      63 calls)

     Called by *egterg:
     cdiaghg      :     37.70s CPU     37.73s WALL (    2351 calls)
     cegterg:over :     13.66s CPU     14.19s WALL (    1973 calls)
     cegterg:upda :      6.28s CPU      6.30s WALL (    1973 calls)
     cegterg:last :      9.06s CPU      9.09s WALL (     781 calls)
     h_psi        :     92.57s CPU     94.13s WALL (    2369 calls)
     s_psi        :      6.88s CPU      6.91s WALL (    2369 calls)
     g_psi        :      0.19s CPU      0.19s WALL (    1973 calls)

     Called by h_psi:
     h_psi:calbec :     11.61s CPU     12.14s WALL (    2369 calls)
     vloc_psi     :     72.67s CPU     73.63s WALL (    2369 calls)
     add_vuspsi   :      7.51s CPU      7.54s WALL (    2369 calls)

     General routines
     calbec       :     15.08s CPU     15.82s WALL (    2747 calls)
     fft          :      0.40s CPU      0.43s WALL (     130 calls)
     ffts         :      0.13s CPU      0.14s WALL (      43 calls)
     fftw         :     80.48s CPU     81.55s WALL (  265360 calls)
     interpolate  :      0.15s CPU      0.16s WALL (      22 calls)

     Parallel routines

     PAW routines
     PAW_pot      :      0.61s CPU      0.63s WALL (      22 calls)
     PAW_symme    :      0.01s CPU      0.01s WALL (      43 calls)

     PWSCF        :   3m32.73s CPU   3m42.06s WALL


   This run was terminated on:  11: 9:10  19Dec2025            

=------------------------------------------------------------------------------=
   JOB DONE.
=------------------------------------------------------------------------------=
Note: The following floating-point exceptions are signalling: IEEE_INVALID_FLAG
Note: The following floating-point exceptions are signalling: IEEE_INVALID_FLAG
Note: The following floating-point exceptions are signalling: IEEE_INVALID_FLAG
Note: The following floating-point exceptions are signalling: IEEE_INVALID_FLAG
Note: The following floating-point exceptions are signalling: IEEE_INVALID_FLAG
Note: The following floating-point exceptions are signalling: IEEE_INVALID_FLAG
Note: The following floating-point exceptions are signalling: IEEE_INVALID_FLAG
Note: The following floating-point exceptions are signalling: IEEE_INVALID_FLAG
Note: The following floating-point exceptions are signalling: IEEE_INVALID_FLAG
Note: The following floating-point exceptions are signalling: IEEE_INVALID_FLAG
Note: The following floating-point exceptions are signalling: IEEE_INVALID_FLAG
Note: The following floating-point exceptions are signalling: IEEE_INVALID_FLAG
Note: The following floating-point exceptions are signalling: IEEE_INVALID_FLAG
Note: The following floating-point exceptions are signalling: IEEE_INVALID_FLAG
[...]
    0.500000    0.500000    1.031250  1  1  1    1.000000
    0.500000    0.500000    1.031250  1  2  1    1.000000
    0.500000    0.500000    1.031250  1  3  1    1.000000
    0.500000    0.500000    0.343750  1  1  1    1.000000
    0.500000    0.500000    0.343750  1  2  1    1.000000
    0.500000    0.500000    0.343750  1  3  1    1.000000

  Reading data about k-point neighbours 

  All neighbours are found 

  Opening pp-files 


  --------------------------
  *** Compute  A projections
  --------------------------

 Number of local k points =      125
       1       2       3       4       5       6       7       8       9      10
      11      12      13      14      15      16      17      18      19      20
      21      22      23      24      25      26      27      28      29      30
      31      32      33      34      35      36      37      38      39      40
      41      42      43      44      45      46      47      48      49      50
      51      52      53      54      55      56      57      58      59      60
      61      62      63      64      65      66      67      68      69      70
      71      72      73      74      75      76      77      78      79      80
      81      82      83      84      85      86      87      88      89      90
      91      92      93      94      95      96      97      98      99     100
     101     102     103     104     105     106     107     108     109     110
     111     112     113     114     115     116     117     118     119     120
     121     122     123     124     125
  AMN calculated

  ---------------
  *** Compute  M 
  ---------------

 Number of local k points =      125
       1       2       3       4       5       6       7       8       9      10
      11      12      13      14      15      16      17      18      19      20
      21      22      23      24      25      26      27      28      29      30
      31      32      33      34      35      36      37      38      39      40
      41      42      43      44      45      46      47      48      49      50
      51      52      53      54      55      56      57      58      59      60
      61      62      63      64      65      66      67      68      69      70
      71      72      73      74      75      76      77      78      79      80
      81      82      83      84      85      86      87      88      89      90
      91      92      93      94      95      96      97      98      99     100
     101     102     103     104     105     106     107     108     109     110
     111     112     113     114     115     116     117     118     119     120
     121     122     123     124     125
  MMN calculated

  -----------------------------------
  *** Orbital terms are not computed 
  -----------------------------------

  -----------------------------------
  *** SHC terms are not computed 
  -----------------------------------

  ----------------
  *** Write bands 
  ----------------


  -----------------------------
  *** Plot info is not printed 
  -----------------------------

  -----------------------------
  *** Parity info is not printed 
  -----------------------------

  ------------
  *** Stop pp 
  ------------


     init_pw2wan  :     16.59s CPU     23.41s WALL (       1 calls)
     compute_amn  :    292.32s CPU    293.19s WALL (       1 calls)
     compute_mmn  :     87.11s CPU     89.42s WALL (       1 calls)

     Internal routines:
     compute_u_kb :     23.85s CPU     24.95s WALL (     750 calls)

     PW2WANNIER   :   6m36.04s CPU   6m46.05s WALL


   This run was terminated on:  19:54:23  19Dec2025            

=------------------------------------------------------------------------------=
   JOB DONE.
=------------------------------------------------------------------------------=

Note: The following floating-point exceptions are signalling: IEEE_INVALID_FLAG
Note: The following floating-point exceptions are signalling: IEEE_INVALID_FLAG
Note: The following floating-point exceptions are signalling: IEEE_INVALID_FLAG
Note: The following floating-point exceptions are signalling: IEEE_INVALID_FLAG
Note: The following floating-point exceptions are signalling: IEEE_INVALID_FLAG
Note: The following floating-point exceptions are signalling: IEEE_INVALID_FLAG
Note: The following floating-point exceptions are signalling: IEEE_INVALID_FLAG
Note: The following floating-point exceptions are signalling: IEEE_INVALID_FLAG
Note: The following floating-point exceptions are signalling: IEEE_INVALID_FLAG
Note: The following floating-point exceptions are signalling: IEEE_INVALID_FLAG
Note: The following floating-point exceptions are signalling: IEEE_INVALID_FLAG
Note: The following floating-point exceptions are signalling: IEEE_INVALID_FLAG
Note: The following floating-point exceptions are signalling: IEEE_INVALID_FLAG
Note: The following floating-point exceptions are signalling: IEEE_INVALID_FLAG
Note: The following floating-point exceptions are signalling: IEEE_INVALID_FLAG
Note: The following floating-point exceptions are signalling: IEEE_INVALID_FLAG
Note: The following floating-point exceptions are signalling: IEEE_INVALID_FLAG
Note: The following floating-point exceptions are signalling: IEEE_INVALID_FLAG
Note: The following floating-point exceptions are signalling: IEEE_INVALID_FLAG
Note: The following floating-point exceptions are signalling: IEEE_INVALID_FLAG
Note: The following floating-point exceptions are signalling: IEEE_INVALID_FLAG
Note: The following floating-point exceptions are signalling: IEEE_INVALID_FLAG
Note: The following floating-point exceptions are signalling: IEEE_INVALID_FLAG
Note: The following floating-point exceptions are signalling: IEEE_INVALID_FLAG
Note: The following floating-point exceptions are signalling: IEEE_INVALID_FLAG
Note: The following floating-point exceptions are signalling: IEEE_INVALID_FLAG
Note: The following floating-point exceptions are signalling: IEEE_INVALID_FLAG
Note: The following floating-point exceptions are signalling: IEEE_INVALID_FLAG
Note: The following floating-point exceptions are signalling: IEEE_INVALID_FLAG
Note: The following floating-point exceptions are signalling: IEEE_INVALID_FLAG
Note: The following floating-point exceptions are signalling: IEEE_INVALID_FLAG
Note: The following floating-point exceptions are signalling: IEEE_INVALID_FLAG

     Program PW2WANNIER v.7.3 starts on 19Dec2025 at 20:46:38 

     This program is part of the open-source Quantum ESPRESSO suite
     for quantum simulation of materials; please cite
         "P. Giannozzi et al., J. Phys.:Condens. Matter 21 395502 (2009);
         "P. Giannozzi et al., J. Phys.:Condens. Matter 29 465901 (2017);
         "P. Giannozzi et al., J. Chem. Phys. 152 154105 (2020);
          URL http://www.quantum-espresso.org", 
     in publications or presentations arising from this work. More details at
     http://www.quantum-espresso.org/quote

     Parallel version (MPI), running on    32 processors

     MPI processes distributed on     1 nodes
     R & G space division:  proc/nbgrp/npool/nimage =      32
     203800 MiB available memory on the printing compute node when the environment starts


     Reading nscf_save data

     Reading xml data from directory:

     ./out/smo.save/

     Program PW2WANNIER v.7.3 starts on 19Dec2025 at 20:46:41 

     This program is part of the open-source Quantum ESPRESSO suite
     for quantum simulation of materials; please cite
         "P. Giannozzi et al., J. Phys.:Condens. Matter 21 395502 (2009);
         "P. Giannozzi et al., J. Phys.:Condens. Matter 29 465901 (2017);
         "P. Giannozzi et al., J. Chem. Phys. 152 154105 (2020);
          URL http://www.quantum-espresso.org", 
     in publications or presentations arising from this work. More details at
     http://www.quantum-espresso.org/quote

     Parallel version (MPI), running on    32 processors

     MPI processes distributed on     1 nodes
     R & G space division:  proc/nbgrp/npool/nimage =      32
     246741 MiB available memory on the printing compute node when the environment starts


     Reading nscf_save data

     Reading xml data from directory:

     ./out/smo.save/
     file Sr.pz-spn-kjpaw_psl.1.0.0.UPF: wavefunction(s)  4P renormalized
     file Mo.pz-spn-kjpaw_psl.1.0.0.UPF: wavefunction(s)  4S 4D renormalized
     file O.pz-n-kjpaw_psl.1.0.0.UPF: wavefunction(s)  2S 2P renormalized

     IMPORTANT: XC functional enforced from input :
     Exchange-correlation= PZ
                           (   1   1   0   0   0   0   0)
     Any further DFT definition will be discarded
     Please, verify this is what you really want


     Parallelization info
     --------------------
     sticks:   dense  smooth     PW     G-vecs:    dense   smooth      PW
     Min         178      89     26                13920     4919     783
     Max         179      90     28                13925     4924     786
     Sum        5713    2861    845               445525   157471   25097

     Using Slab Decomposition

     Reading collected, re-writing distributed wavefunctions

  Spin CASE ( default = unpolarized )

  Wannier mode is: standalone     

  -----------------
  *** Reading nnkp 
  -----------------

  Checking info from wannier.nnkp file

  - Real lattice is ok
  - Reciprocal lattice is ok
  - K-points are ok
  - Number of wannier functions is ok ( 76)
  - All guiding functions are given 

 Projections:
    0.000000    0.000000    0.000000  2  1  1    1.000000
    0.000000    0.000000    0.000000  2  2  1    1.000000
    0.000000    0.000000    0.000000  2  3  1    1.000000
    0.000000    0.000000    0.000000  2  4  1    1.000000
    0.000000    0.000000    0.000000  2  5  1    1.000000
    0.000000    0.000000    0.687500  2  1  1    1.000000
    0.000000    0.000000    0.687500  2  2  1    1.000000
    0.000000    0.000000    0.687500  2  3  1    1.000000
    0.000000    0.000000    0.687500  2  4  1    1.000000
    0.000000    0.000000    0.687500  2  5  1    1.000000
    0.500000    0.500000    0.687500  2  1  1    1.000000
    0.500000    0.500000    0.687500  2  2  1    1.000000
    0.500000    0.500000    0.687500  2  3  1    1.000000
    0.500000    0.500000    0.687500  2  4  1    1.000000
    0.500000    0.500000    0.687500  2  5  1    1.000000
    0.500000    0.500000    0.000000  2  1  1    1.000000
    0.500000    0.500000    0.000000  2  2  1    1.000000
    0.500000    0.500000    0.000000  2  3  1    1.000000
    0.500000    0.500000    0.000000  2  4  1    1.000000
    0.500000    0.500000    0.000000  2  5  1    1.000000
    0.000000    0.500000    0.343750  2  1  1    1.000000
    0.000000    0.500000    0.343750  2  2  1    1.000000
    0.000000    0.500000    0.343750  2  3  1    1.000000
    0.000000    0.500000    0.343750  2  4  1    1.000000
    0.000000    0.500000    0.343750  2  5  1    1.000000
    0.000000    0.500000    1.031250  2  1  1    1.000000
    0.000000    0.500000    1.031250  2  2  1    1.000000
    0.000000    0.500000    1.031250  2  3  1    1.000000
    0.000000    0.500000    1.031250  2  4  1    1.000000
    0.000000    0.500000    1.031250  2  5  1    1.000000
    0.500000    0.000000    1.031250  2  1  1    1.000000
    0.500000    0.000000    1.031250  2  2  1    1.000000
    0.500000    0.000000    1.031250  2  3  1    1.000000
    0.500000    0.000000    1.031250  2  4  1    1.000000
    0.500000    0.000000    1.031250  2  5  1    1.000000
    0.500000    0.000000    0.343750  2  1  1    1.000000
    0.500000    0.000000    0.343750  2  2  1    1.000000
    0.500000    0.000000    0.343750  2  3  1    1.000000
    0.500000    0.000000    0.343750  2  4  1    1.000000
    0.500000    0.000000    0.343750  2  5  1    1.000000
    0.250000    0.750000    0.000000  1  1  1    1.000000
    0.250000    0.750000    0.000000  1  2  1    1.000000
    0.250000    0.750000    0.000000  1  3  1    1.000000
    0.250000    0.250000    0.000000  1  1  1    1.000000
    0.250000    0.250000    0.000000  1  2  1    1.000000
    0.250000    0.250000    0.000000  1  3  1    1.000000
    0.750000    0.250000    0.687500  1  1  1    1.000000
    0.750000    0.250000    0.687500  1  2  1    1.000000
    0.750000    0.250000    0.687500  1  3  1    1.000000
    0.750000    0.750000    0.687500  1  1  1    1.000000
    0.750000    0.750000    0.687500  1  2  1    1.000000
    0.750000    0.750000    0.687500  1  3  1    1.000000
    0.750000    0.250000    0.000000  1  1  1    1.000000
    0.750000    0.250000    0.000000  1  2  1    1.000000
    0.750000    0.250000    0.000000  1  3  1    1.000000
    0.750000    0.750000    0.000000  1  1  1    1.000000
    0.750000    0.750000    0.000000  1  2  1    1.000000
    0.750000    0.750000    0.000000  1  3  1    1.000000
    0.250000    0.750000    0.687500  1  1  1    1.000000
    0.250000    0.750000    0.687500  1  2  1    1.000000
    0.250000    0.750000    0.687500  1  3  1    1.000000
    0.250000    0.250000    0.687500  1  1  1    1.000000
    0.250000    0.250000    0.687500  1  2  1    1.000000
    0.250000    0.250000    0.687500  1  3  1    1.000000
    0.000000    0.000000    0.343750  1  1  1    1.000000
    0.000000    0.000000    0.343750  1  2  1    1.000000
    0.000000    0.000000    0.343750  1  3  1    1.000000
    0.000000    0.000000    1.031250  1  1  1    1.000000
    0.000000    0.000000    1.031250  1  2  1    1.000000
    0.000000    0.000000    1.031250  1  3  1    1.000000
    0.500000    0.500000    1.031250  1  1  1    1.000000
    0.500000    0.500000    1.031250  1  2  1    1.000000
    0.500000    0.500000    1.031250  1  3  1    1.000000
    0.500000    0.500000    0.343750  1  1  1    1.000000
    0.500000    0.500000    0.343750  1  2  1    1.000000
    0.500000    0.500000    0.343750  1  3  1    1.000000

  Reading data about k-point neighbours 

  All neighbours are found 

  Opening pp-files 


  --------------------------
  *** Compute  A projections
  --------------------------

 Number of local k points =      125
       1       2       3       4       5       6       7       8       9      10
      11      12      13      14      15      16      17      18      19      20
      21      22      23      24      25      26      27      28      29      30
      31      32      33      34      35      36      37      38      39      40
      41      42      43      44      45      46      47      48      49      50
      51      52      53      54      55      56      57      58      59      60
      61      62      63      64      65      66      67      68      69      70
      71      72      73      74      75      76      77      78      79      80
      81      82      83      84      85      86      87      88      89      90
      91      92      93      94      95      96      97      98      99     100
     101     102     103     104     105     106     107     108     109     110
     111     112     113     114     115     116     117     118     119     120
     121     122     123     124     125
  AMN calculated

  ---------------
  *** Compute  M 
  ---------------

 Number of local k points =      125
       1       2       3       4       5       6       7       8       9      10
      11      12      13      14      15      16      17      18      19      20
      21      22      23      24      25      26      27      28      29      30
      31      32      33      34      35      36      37      38      39      40
      41      42      43      44      45      46      47      48      49      50
      51      52      53      54      55      56      57      58      59      60
      61      62      63      64      65      66      67      68      69      70
      71      72      73      74      75      76      77      78      79      80
      81      82      83      84      85      86      87      88      89      90
      91      92      93      94      95      96      97      98      99     100
     101     102     103     104     105     106     107     108     109     110
     111     112     113     114     115     116     117     118     119     120
     121     122     123     124     125
  MMN calculated

  -----------------------------------
  *** Orbital terms are not computed 
  -----------------------------------

  -----------------------------------
  *** SHC terms are not computed 
  -----------------------------------

  ----------------
  *** Write bands 
  ----------------


  -----------------------------
  *** Plot info is not printed 
  -----------------------------

  -----------------------------
  *** Parity info is not printed 
  -----------------------------

  ------------
  *** Stop pp 
  ------------


     init_pw2wan  :     10.51s CPU     11.89s WALL (       1 calls)
     compute_amn  :    289.24s CPU    289.91s WALL (       1 calls)
     compute_mmn  :     86.37s CPU     88.67s WALL (       1 calls)

     Internal routines:
     compute_u_kb :     23.94s CPU     24.93s WALL (     750 calls)

     PW2WANNIER   :   6m26.14s CPU   6m30.49s WALL


   This run was terminated on:  20:53:12  19Dec2025            

=------------------------------------------------------------------------------=
   JOB DONE.
=------------------------------------------------------------------------------=

Note: The following floating-point exceptions are signalling: IEEE_INVALID_FLAG
Note: The following floating-point exceptions are signalling: IEEE_INVALID_FLAG
Note: The following floating-point exceptions are signalling: IEEE_INVALID_FLAG
Note: The following floating-point exceptions are signalling: IEEE_INVALID_FLAG
Note: The following floating-point exceptions are signalling: IEEE_INVALID_FLAG
Note: The following floating-point exceptions are signalling: IEEE_INVALID_FLAG
Note: The following floating-point exceptions are signalling: IEEE_INVALID_FLAG
Note: The following floating-point exceptions are signalling: IEEE_INVALID_FLAG
Note: The following floating-point exceptions are signalling: IEEE_INVALID_FLAG
Note: The following floating-point exceptions are signalling: IEEE_INVALID_FLAG
Note: The following floating-point exceptions are signalling: IEEE_INVALID_FLAG
Note: The following floating-point exceptions are signalling: IEEE_INVALID_FLAG
Note: The following floating-point exceptions are signalling: IEEE_INVALID_FLAG
Note: The following floating-point exceptions are signalling: IEEE_INVALID_FLAG
Note: The following floating-point exceptions are signalling: IEEE_INVALID_FLAG
Note: The following floating-point exceptions are signalling: IEEE_INVALID_FLAG
Note: The following floating-point exceptions are signalling: IEEE_INVALID_FLAG
Note: The following floating-point exceptions are signalling: IEEE_INVALID_FLAG
Note: The following floating-point exceptions are signalling: IEEE_INVALID_FLAG
Note: The following floating-point exceptions are signalling: IEEE_INVALID_FLAG
Note: The following floating-point exceptions are signalling: IEEE_INVALID_FLAG
Note: The following floating-point exceptions are signalling: IEEE_INVALID_FLAG
Note: The following floating-point exceptions are signalling: IEEE_INVALID_FLAG
Note: The following floating-point exceptions are signalling: IEEE_INVALID_FLAG
Note: The following floating-point exceptions are signalling: IEEE_INVALID_FLAG
Note: The following floating-point exceptions are signalling: IEEE_INVALID_FLAG
Note: The following floating-point exceptions are signalling: IEEE_INVALID_FLAG
Note: The following floating-point exceptions are signalling: IEEE_INVALID_FLAG
Note: The following floating-point exceptions are signalling: IEEE_INVALID_FLAG
Note: The following floating-point exceptions are signalling: IEEE_INVALID_FLAG
Note: The following floating-point exceptions are signalling: IEEE_INVALID_FLAG
Note: The following floating-point exceptions are signalling: IEEE_INVALID_FLAG
