
             +---------------------------------------------------+
             |                                                   |
             |                   WANNIER90                       |
             |                                                   |
             +---------------------------------------------------+
             |                                                   |
             |        Welcome to the Maximally-Localized         |
             |        Generalized Wannier Functions code         |
             |            http://www.wannier.org                 |
             |                                                   |
             |                                                   |
             |  Wannier90 Developer Group:                       |
             |    Giovanni Pizzi    (Paul Scherrer Institute)    |
             |    Valerio Vitale    (University of Trieste)      |
             |    David Vanderbilt  (Rutgers University)         |
             |    Nicola Marzari    (EPFL)                       |
             |    Ivo Souza         (Universidad del Pais Vasco) |
             |    Arash A. Mostofi  (Imperial College London)    |
             |    Jonathan R. Yates (University of Oxford)       |
             |                                                   |
             |  For the full list of Wannier90 3.x authors,      |
             |  please check the code documentation and the      |
             |  README on the GitHub page of the code            |
             |                                                   |
             |                                                   |
             |  Please cite                                      |
             |                                                   |
             |  [ref] "Wannier90 as a community code:            |
             |        new features and applications",            |
             |        G. Pizzi et al., J. Phys. Cond. Matt. 32,  |
             |        165902 (2020).                             |
             |        http://doi.org/10.1088/1361-648X/ab51ff    |
             |                                                   |
             |  in any publications arising from the use of      |
             |  this code. For the method please cite            |
             |                                                   |
             |  [ref] "Maximally Localized Generalised Wannier   |
             |         Functions for Composite Energy Bands"     |
             |         N. Marzari and D. Vanderbilt              |
             |         Phys. Rev. B 56 12847 (1997)              |
             |                                                   |
             |  [ref] "Maximally Localized Wannier Functions     |
             |         for Entangled Energy Bands"               |
             |         I. Souza, N. Marzari and D. Vanderbilt    |
             |         Phys. Rev. B 65 035109 (2001)             |
             |                                                   |
             |                                                   |
             | Copyright (c) 1996-2020                           |
             |        The Wannier90 Developer Group and          |
             |        individual contributors                    |
             |                                                   |
             |      Release: 3.1.0        5th March    2020      |
             |                                                   |
             | This program is free software; you can            |
             | redistribute it and/or modify it under the terms  |
             | of the GNU General Public License as published by |
             | the Free Software Foundation; either version 2 of |
             | the License, or (at your option) any later version|
             |                                                   |
             | This program is distributed in the hope that it   |
             | will be useful, but WITHOUT ANY WARRANTY; without |
             | even the implied warranty of MERCHANTABILITY or   |
             | FITNESS FOR A PARTICULAR PURPOSE. See the GNU     |
             | General Public License for more details.          |
             |                                                   |
             | You should have received a copy of the GNU General|
             | Public License along with this program; if not,   |
             | write to the Free Software Foundation, Inc.,      |
             | 675 Mass Ave, Cambridge, MA 02139, USA.           |
             |                                                   |
             +---------------------------------------------------+
             |    Execution started on 19Dec2025 at 20:53:13     |
             +---------------------------------------------------+
 
 ******************************************************************************
 * -> Using CODATA 2006 constant values                                       *
 *    (http://physics.nist.gov/cuu/Constants/index.html)                      *
 * -> Using Bohr value from CODATA                                            *
 ******************************************************************************
 

 Running in parallel on  32 CPUs


                                    ------
                                    SYSTEM
                                    ------

                              Lattice Vectors (Ang)
                    a_1     5.600000   0.000000   0.000000
                    a_2     0.000000   5.600000   0.000000
                    a_3     0.000000   0.000000   7.700000

                   Unit Cell Volume:     241.47200  (Ang^3)

                        Reciprocal-Space Vectors (Ang^-1)
                    b_1     1.121997   0.000000   0.000000
                    b_2     0.000000   1.121997   0.000000
                    b_3     0.000000   0.000000   0.815998
  
 *----------------------------------------------------------------------------*
 |   Site       Fractional Coordinate          Cartesian Coordinate (Ang)     |
 +----------------------------------------------------------------------------+
 | sr   1   0.00000   0.50000   0.25000   |    0.00000   2.80000   1.92500    |
 | sr   2   0.00000   0.50000   0.75000   |    0.00000   2.80000   5.77500    |
 | sr   3   0.50000   0.00000   0.75000   |    2.80000   0.00000   5.77500    |
 | sr   4   0.50000   0.00000   0.25000   |    2.80000   0.00000   1.92500    |
 | mo   1   0.00000   0.00000   0.00000   |    0.00000   0.00000   0.00000    |
 | mo   2   0.00000   0.00000   0.50000   |    0.00000   0.00000   3.85000    |
 | mo   3   0.50000   0.50000   0.50000   |    2.80000   2.80000   3.85000    |
 | mo   4   0.50000   0.50000   0.00000   |    2.80000   2.80000   0.00000    |
 | o    1   0.25000   0.75000   0.00000   |    1.40000   4.20000   0.00000    |
 | o    2   0.25000   0.25000   0.00000   |    1.40000   1.40000   0.00000    |
 | o    3   0.75000   0.25000   0.50000   |    4.20000   1.40000   3.85000    |
 | o    4   0.75000   0.75000   0.50000   |    4.20000   4.20000   3.85000    |
 | o    5   0.75000   0.25000   0.00000   |    4.20000   1.40000   0.00000    |
 | o    6   0.75000   0.75000   0.00000   |    4.20000   4.20000   0.00000    |
 | o    7   0.25000   0.75000   0.50000   |    1.40000   4.20000   3.85000    |
 | o    8   0.25000   0.25000   0.50000   |    1.40000   1.40000   3.85000    |
 | o    9   0.00000   0.00000   0.25000   |    0.00000   0.00000   1.92500    |
 | o   10   0.00000   0.00000   0.75000   |    0.00000   0.00000   5.77500    |
 | o   11   0.50000   0.50000   0.75000   |    2.80000   2.80000   5.77500    |
 | o   12   0.50000   0.50000   0.25000   |    2.80000   2.80000   1.92500    |
 *----------------------------------------------------------------------------*
                                -----------
                                PROJECTIONS
                                -----------
  
 +----------------------------------------------------------------------------+
 |     Frac. Coord.   l mr  r        z-axis               x-axis          Z/a |
 +----------------------------------------------------------------------------+
 |  0.00  0.00  0.00  2  1  1  0.000  0.000  1.000  1.000  0.000  0.000   1.0 |
 |  0.00  0.00  0.00  2  2  1  0.000  0.000  1.000  1.000  0.000  0.000   1.0 |
 |  0.00  0.00  0.00  2  3  1  0.000  0.000  1.000  1.000  0.000  0.000   1.0 |
 |  0.00  0.00  0.00  2  4  1  0.000  0.000  1.000  1.000  0.000  0.000   1.0 |
 |  0.00  0.00  0.00  2  5  1  0.000  0.000  1.000  1.000  0.000  0.000   1.0 |
 |  0.00  0.00  0.50  2  1  1  0.000  0.000  1.000  1.000  0.000  0.000   1.0 |
 |  0.00  0.00  0.50  2  2  1  0.000  0.000  1.000  1.000  0.000  0.000   1.0 |
 |  0.00  0.00  0.50  2  3  1  0.000  0.000  1.000  1.000  0.000  0.000   1.0 |
 |  0.00  0.00  0.50  2  4  1  0.000  0.000  1.000  1.000  0.000  0.000   1.0 |
 |  0.00  0.00  0.50  2  5  1  0.000  0.000  1.000  1.000  0.000  0.000   1.0 |
 |  0.50  0.50  0.50  2  1  1  0.000  0.000  1.000  1.000  0.000  0.000   1.0 |
 |  0.50  0.50  0.50  2  2  1  0.000  0.000  1.000  1.000  0.000  0.000   1.0 |
 |  0.50  0.50  0.50  2  3  1  0.000  0.000  1.000  1.000  0.000  0.000   1.0 |
 |  0.50  0.50  0.50  2  4  1  0.000  0.000  1.000  1.000  0.000  0.000   1.0 |
 |  0.50  0.50  0.50  2  5  1  0.000  0.000  1.000  1.000  0.000  0.000   1.0 |
 |  0.50  0.50  0.00  2  1  1  0.000  0.000  1.000  1.000  0.000  0.000   1.0 |
 |  0.50  0.50  0.00  2  2  1  0.000  0.000  1.000  1.000  0.000  0.000   1.0 |
 |  0.50  0.50  0.00  2  3  1  0.000  0.000  1.000  1.000  0.000  0.000   1.0 |
 |  0.50  0.50  0.00  2  4  1  0.000  0.000  1.000  1.000  0.000  0.000   1.0 |
 |  0.50  0.50  0.00  2  5  1  0.000  0.000  1.000  1.000  0.000  0.000   1.0 |
 |  0.00  0.50  0.25  2  1  1  0.000  0.000  1.000  1.000  0.000  0.000   1.0 |
 |  0.00  0.50  0.25  2  2  1  0.000  0.000  1.000  1.000  0.000  0.000   1.0 |
 |  0.00  0.50  0.25  2  3  1  0.000  0.000  1.000  1.000  0.000  0.000   1.0 |
 |  0.00  0.50  0.25  2  4  1  0.000  0.000  1.000  1.000  0.000  0.000   1.0 |
 |  0.00  0.50  0.25  2  5  1  0.000  0.000  1.000  1.000  0.000  0.000   1.0 |
 |  0.00  0.50  0.75  2  1  1  0.000  0.000  1.000  1.000  0.000  0.000   1.0 |
 |  0.00  0.50  0.75  2  2  1  0.000  0.000  1.000  1.000  0.000  0.000   1.0 |
 |  0.00  0.50  0.75  2  3  1  0.000  0.000  1.000  1.000  0.000  0.000   1.0 |
 |  0.00  0.50  0.75  2  4  1  0.000  0.000  1.000  1.000  0.000  0.000   1.0 |
 |  0.00  0.50  0.75  2  5  1  0.000  0.000  1.000  1.000  0.000  0.000   1.0 |
 |  0.50  0.00  0.75  2  1  1  0.000  0.000  1.000  1.000  0.000  0.000   1.0 |
 |  0.50  0.00  0.75  2  2  1  0.000  0.000  1.000  1.000  0.000  0.000   1.0 |
 |  0.50  0.00  0.75  2  3  1  0.000  0.000  1.000  1.000  0.000  0.000   1.0 |
 |  0.50  0.00  0.75  2  4  1  0.000  0.000  1.000  1.000  0.000  0.000   1.0 |
 |  0.50  0.00  0.75  2  5  1  0.000  0.000  1.000  1.000  0.000  0.000   1.0 |
 |  0.50  0.00  0.25  2  1  1  0.000  0.000  1.000  1.000  0.000  0.000   1.0 |
 |  0.50  0.00  0.25  2  2  1  0.000  0.000  1.000  1.000  0.000  0.000   1.0 |
 |  0.50  0.00  0.25  2  3  1  0.000  0.000  1.000  1.000  0.000  0.000   1.0 |
 |  0.50  0.00  0.25  2  4  1  0.000  0.000  1.000  1.000  0.000  0.000   1.0 |
 |  0.50  0.00  0.25  2  5  1  0.000  0.000  1.000  1.000  0.000  0.000   1.0 |
 |  0.25  0.75  0.00  1  1  1  0.000  0.000  1.000  1.000  0.000  0.000   1.0 |
 |  0.25  0.75  0.00  1  2  1  0.000  0.000  1.000  1.000  0.000  0.000   1.0 |
 |  0.25  0.75  0.00  1  3  1  0.000  0.000  1.000  1.000  0.000  0.000   1.0 |
 |  0.25  0.25  0.00  1  1  1  0.000  0.000  1.000  1.000  0.000  0.000   1.0 |
 |  0.25  0.25  0.00  1  2  1  0.000  0.000  1.000  1.000  0.000  0.000   1.0 |
 |  0.25  0.25  0.00  1  3  1  0.000  0.000  1.000  1.000  0.000  0.000   1.0 |
 |  0.75  0.25  0.50  1  1  1  0.000  0.000  1.000  1.000  0.000  0.000   1.0 |
 |  0.75  0.25  0.50  1  2  1  0.000  0.000  1.000  1.000  0.000  0.000   1.0 |
 |  0.75  0.25  0.50  1  3  1  0.000  0.000  1.000  1.000  0.000  0.000   1.0 |
 |  0.75  0.75  0.50  1  1  1  0.000  0.000  1.000  1.000  0.000  0.000   1.0 |
 |  0.75  0.75  0.50  1  2  1  0.000  0.000  1.000  1.000  0.000  0.000   1.0 |
 |  0.75  0.75  0.50  1  3  1  0.000  0.000  1.000  1.000  0.000  0.000   1.0 |
 |  0.75  0.25  0.00  1  1  1  0.000  0.000  1.000  1.000  0.000  0.000   1.0 |
 |  0.75  0.25  0.00  1  2  1  0.000  0.000  1.000  1.000  0.000  0.000   1.0 |
 |  0.75  0.25  0.00  1  3  1  0.000  0.000  1.000  1.000  0.000  0.000   1.0 |
 |  0.75  0.75  0.00  1  1  1  0.000  0.000  1.000  1.000  0.000  0.000   1.0 |
 |  0.75  0.75  0.00  1  2  1  0.000  0.000  1.000  1.000  0.000  0.000   1.0 |
 |  0.75  0.75  0.00  1  3  1  0.000  0.000  1.000  1.000  0.000  0.000   1.0 |
 |  0.25  0.75  0.50  1  1  1  0.000  0.000  1.000  1.000  0.000  0.000   1.0 |
 |  0.25  0.75  0.50  1  2  1  0.000  0.000  1.000  1.000  0.000  0.000   1.0 |
 |  0.25  0.75  0.50  1  3  1  0.000  0.000  1.000  1.000  0.000  0.000   1.0 |
 |  0.25  0.25  0.50  1  1  1  0.000  0.000  1.000  1.000  0.000  0.000   1.0 |
 |  0.25  0.25  0.50  1  2  1  0.000  0.000  1.000  1.000  0.000  0.000   1.0 |
 |  0.25  0.25  0.50  1  3  1  0.000  0.000  1.000  1.000  0.000  0.000   1.0 |
 |  0.00  0.00  0.25  1  1  1  0.000  0.000  1.000  1.000  0.000  0.000   1.0 |
 |  0.00  0.00  0.25  1  2  1  0.000  0.000  1.000  1.000  0.000  0.000   1.0 |
 |  0.00  0.00  0.25  1  3  1  0.000  0.000  1.000  1.000  0.000  0.000   1.0 |
 |  0.00  0.00  0.75  1  1  1  0.000  0.000  1.000  1.000  0.000  0.000   1.0 |
 |  0.00  0.00  0.75  1  2  1  0.000  0.000  1.000  1.000  0.000  0.000   1.0 |
 |  0.00  0.00  0.75  1  3  1  0.000  0.000  1.000  1.000  0.000  0.000   1.0 |
 |  0.50  0.50  0.75  1  1  1  0.000  0.000  1.000  1.000  0.000  0.000   1.0 |
 |  0.50  0.50  0.75  1  2  1  0.000  0.000  1.000  1.000  0.000  0.000   1.0 |
 |  0.50  0.50  0.75  1  3  1  0.000  0.000  1.000  1.000  0.000  0.000   1.0 |
 |  0.50  0.50  0.25  1  1  1  0.000  0.000  1.000  1.000  0.000  0.000   1.0 |
 |  0.50  0.50  0.25  1  2  1  0.000  0.000  1.000  1.000  0.000  0.000   1.0 |
 |  0.50  0.50  0.25  1  3  1  0.000  0.000  1.000  1.000  0.000  0.000   1.0 |
 +----------------------------------------------------------------------------+
  
                                ------------
                                K-POINT GRID
                                ------------
  
             Grid size =  5 x  5 x  5      Total points =  125
  
 *----------------------------------------------------------------------------*
 | k-point      Fractional Coordinate        Cartesian Coordinate (Ang^-1)    |
 +----------------------------------------------------------------------------+
 |     1    0.00000   0.00000   0.00000   |    0.00000   0.00000   0.00000    |
 |     2    0.00000   0.00000   0.20000   |    0.00000   0.00000   0.16320    |
 |     3    0.00000   0.00000   0.40000   |    0.00000   0.00000   0.32640    |
 |     4    0.00000   0.00000   0.60000   |    0.00000   0.00000   0.48960    |
 |     5    0.00000   0.00000   0.80000   |    0.00000   0.00000   0.65280    |
 |     6    0.00000   0.20000   0.00000   |    0.00000   0.22440   0.00000    |
 |     7    0.00000   0.20000   0.20000   |    0.00000   0.22440   0.16320    |
 |     8    0.00000   0.20000   0.40000   |    0.00000   0.22440   0.32640    |
 |     9    0.00000   0.20000   0.60000   |    0.00000   0.22440   0.48960    |
 |    10    0.00000   0.20000   0.80000   |    0.00000   0.22440   0.65280    |
 |    11    0.00000   0.40000   0.00000   |    0.00000   0.44880   0.00000    |
 |    12    0.00000   0.40000   0.20000   |    0.00000   0.44880   0.16320    |
 |    13    0.00000   0.40000   0.40000   |    0.00000   0.44880   0.32640    |
 |    14    0.00000   0.40000   0.60000   |    0.00000   0.44880   0.48960    |
 |    15    0.00000   0.40000   0.80000   |    0.00000   0.44880   0.65280    |
 |    16    0.00000   0.60000   0.00000   |    0.00000   0.67320   0.00000    |
 |    17    0.00000   0.60000   0.20000   |    0.00000   0.67320   0.16320    |
 |    18    0.00000   0.60000   0.40000   |    0.00000   0.67320   0.32640    |
 |    19    0.00000   0.60000   0.60000   |    0.00000   0.67320   0.48960    |
 |    20    0.00000   0.60000   0.80000   |    0.00000   0.67320   0.65280    |
 |    21    0.00000   0.80000   0.00000   |    0.00000   0.89760   0.00000    |
 |    22    0.00000   0.80000   0.20000   |    0.00000   0.89760   0.16320    |
 |    23    0.00000   0.80000   0.40000   |    0.00000   0.89760   0.32640    |
 |    24    0.00000   0.80000   0.60000   |    0.00000   0.89760   0.48960    |
 |    25    0.00000   0.80000   0.80000   |    0.00000   0.89760   0.65280    |
 |    26    0.20000   0.00000   0.00000   |    0.22440   0.00000   0.00000    |
 |    27    0.20000   0.00000   0.20000   |    0.22440   0.00000   0.16320    |
 |    28    0.20000   0.00000   0.40000   |    0.22440   0.00000   0.32640    |
 |    29    0.20000   0.00000   0.60000   |    0.22440   0.00000   0.48960    |
 |    30    0.20000   0.00000   0.80000   |    0.22440   0.00000   0.65280    |
 |    31    0.20000   0.20000   0.00000   |    0.22440   0.22440   0.00000    |
 |    32    0.20000   0.20000   0.20000   |    0.22440   0.22440   0.16320    |
 |    33    0.20000   0.20000   0.40000   |    0.22440   0.22440   0.32640    |
 |    34    0.20000   0.20000   0.60000   |    0.22440   0.22440   0.48960    |
 |    35    0.20000   0.20000   0.80000   |    0.22440   0.22440   0.65280    |
 |    36    0.20000   0.40000   0.00000   |    0.22440   0.44880   0.00000    |
 |    37    0.20000   0.40000   0.20000   |    0.22440   0.44880   0.16320    |
 |    38    0.20000   0.40000   0.40000   |    0.22440   0.44880   0.32640    |
 |    39    0.20000   0.40000   0.60000   |    0.22440   0.44880   0.48960    |
 |    40    0.20000   0.40000   0.80000   |    0.22440   0.44880   0.65280    |
 |    41    0.20000   0.60000   0.00000   |    0.22440   0.67320   0.00000    |
 |    42    0.20000   0.60000   0.20000   |    0.22440   0.67320   0.16320    |
 |    43    0.20000   0.60000   0.40000   |    0.22440   0.67320   0.32640    |
 |    44    0.20000   0.60000   0.60000   |    0.22440   0.67320   0.48960    |
 |    45    0.20000   0.60000   0.80000   |    0.22440   0.67320   0.65280    |
 |    46    0.20000   0.80000   0.00000   |    0.22440   0.89760   0.00000    |
 |    47    0.20000   0.80000   0.20000   |    0.22440   0.89760   0.16320    |
 |    48    0.20000   0.80000   0.40000   |    0.22440   0.89760   0.32640    |
 |    49    0.20000   0.80000   0.60000   |    0.22440   0.89760   0.48960    |
 |    50    0.20000   0.80000   0.80000   |    0.22440   0.89760   0.65280    |
 |    51    0.40000   0.00000   0.00000   |    0.44880   0.00000   0.00000    |
 |    52    0.40000   0.00000   0.20000   |    0.44880   0.00000   0.16320    |
 |    53    0.40000   0.00000   0.40000   |    0.44880   0.00000   0.32640    |
 |    54    0.40000   0.00000   0.60000   |    0.44880   0.00000   0.48960    |
 |    55    0.40000   0.00000   0.80000   |    0.44880   0.00000   0.65280    |
 |    56    0.40000   0.20000   0.00000   |    0.44880   0.22440   0.00000    |
 |    57    0.40000   0.20000   0.20000   |    0.44880   0.22440   0.16320    |
 |    58    0.40000   0.20000   0.40000   |    0.44880   0.22440   0.32640    |
 |    59    0.40000   0.20000   0.60000   |    0.44880   0.22440   0.48960    |
 |    60    0.40000   0.20000   0.80000   |    0.44880   0.22440   0.65280    |
 |    61    0.40000   0.40000   0.00000   |    0.44880   0.44880   0.00000    |
 |    62    0.40000   0.40000   0.20000   |    0.44880   0.44880   0.16320    |
 |    63    0.40000   0.40000   0.40000   |    0.44880   0.44880   0.32640    |
 |    64    0.40000   0.40000   0.60000   |    0.44880   0.44880   0.48960    |
 |    65    0.40000   0.40000   0.80000   |    0.44880   0.44880   0.65280    |
 |    66    0.40000   0.60000   0.00000   |    0.44880   0.67320   0.00000    |
 |    67    0.40000   0.60000   0.20000   |    0.44880   0.67320   0.16320    |
 |    68    0.40000   0.60000   0.40000   |    0.44880   0.67320   0.32640    |
 |    69    0.40000   0.60000   0.60000   |    0.44880   0.67320   0.48960    |
 |    70    0.40000   0.60000   0.80000   |    0.44880   0.67320   0.65280    |
 |    71    0.40000   0.80000   0.00000   |    0.44880   0.89760   0.00000    |
 |    72    0.40000   0.80000   0.20000   |    0.44880   0.89760   0.16320    |
 |    73    0.40000   0.80000   0.40000   |    0.44880   0.89760   0.32640    |
 |    74    0.40000   0.80000   0.60000   |    0.44880   0.89760   0.48960    |
 |    75    0.40000   0.80000   0.80000   |    0.44880   0.89760   0.65280    |
 |    76    0.60000   0.00000   0.00000   |    0.67320   0.00000   0.00000    |
 |    77    0.60000   0.00000   0.20000   |    0.67320   0.00000   0.16320    |
 |    78    0.60000   0.00000   0.40000   |    0.67320   0.00000   0.32640    |
 |    79    0.60000   0.00000   0.60000   |    0.67320   0.00000   0.48960    |
 |    80    0.60000   0.00000   0.80000   |    0.67320   0.00000   0.65280    |
 |    81    0.60000   0.20000   0.00000   |    0.67320   0.22440   0.00000    |
 |    82    0.60000   0.20000   0.20000   |    0.67320   0.22440   0.16320    |
 |    83    0.60000   0.20000   0.40000   |    0.67320   0.22440   0.32640    |
 |    84    0.60000   0.20000   0.60000   |    0.67320   0.22440   0.48960    |
 |    85    0.60000   0.20000   0.80000   |    0.67320   0.22440   0.65280    |
 |    86    0.60000   0.40000   0.00000   |    0.67320   0.44880   0.00000    |
 |    87    0.60000   0.40000   0.20000   |    0.67320   0.44880   0.16320    |
 |    88    0.60000   0.40000   0.40000   |    0.67320   0.44880   0.32640    |
 |    89    0.60000   0.40000   0.60000   |    0.67320   0.44880   0.48960    |
 |    90    0.60000   0.40000   0.80000   |    0.67320   0.44880   0.65280    |
 |    91    0.60000   0.60000   0.00000   |    0.67320   0.67320   0.00000    |
 |    92    0.60000   0.60000   0.20000   |    0.67320   0.67320   0.16320    |
 |    93    0.60000   0.60000   0.40000   |    0.67320   0.67320   0.32640    |
 |    94    0.60000   0.60000   0.60000   |    0.67320   0.67320   0.48960    |
 |    95    0.60000   0.60000   0.80000   |    0.67320   0.67320   0.65280    |
 |    96    0.60000   0.80000   0.00000   |    0.67320   0.89760   0.00000    |
 |    97    0.60000   0.80000   0.20000   |    0.67320   0.89760   0.16320    |
 |    98    0.60000   0.80000   0.40000   |    0.67320   0.89760   0.32640    |
 |    99    0.60000   0.80000   0.60000   |    0.67320   0.89760   0.48960    |
 |   100    0.60000   0.80000   0.80000   |    0.67320   0.89760   0.65280    |
 |   101    0.80000   0.00000   0.00000   |    0.89760   0.00000   0.00000    |
 |   102    0.80000   0.00000   0.20000   |    0.89760   0.00000   0.16320    |
 |   103    0.80000   0.00000   0.40000   |    0.89760   0.00000   0.32640    |
 |   104    0.80000   0.00000   0.60000   |    0.89760   0.00000   0.48960    |
 |   105    0.80000   0.00000   0.80000   |    0.89760   0.00000   0.65280    |
 |   106    0.80000   0.20000   0.00000   |    0.89760   0.22440   0.00000    |
 |   107    0.80000   0.20000   0.20000   |    0.89760   0.22440   0.16320    |
 |   108    0.80000   0.20000   0.40000   |    0.89760   0.22440   0.32640    |
 |   109    0.80000   0.20000   0.60000   |    0.89760   0.22440   0.48960    |
 |   110    0.80000   0.20000   0.80000   |    0.89760   0.22440   0.65280    |
 |   111    0.80000   0.40000   0.00000   |    0.89760   0.44880   0.00000    |
 |   112    0.80000   0.40000   0.20000   |    0.89760   0.44880   0.16320    |
 |   113    0.80000   0.40000   0.40000   |    0.89760   0.44880   0.32640    |
 |   114    0.80000   0.40000   0.60000   |    0.89760   0.44880   0.48960    |
 |   115    0.80000   0.40000   0.80000   |    0.89760   0.44880   0.65280    |
 |   116    0.80000   0.60000   0.00000   |    0.89760   0.67320   0.00000    |
 |   117    0.80000   0.60000   0.20000   |    0.89760   0.67320   0.16320    |
 |   118    0.80000   0.60000   0.40000   |    0.89760   0.67320   0.32640    |
 |   119    0.80000   0.60000   0.60000   |    0.89760   0.67320   0.48960    |
 |   120    0.80000   0.60000   0.80000   |    0.89760   0.67320   0.65280    |
 |   121    0.80000   0.80000   0.00000   |    0.89760   0.89760   0.00000    |
 |   122    0.80000   0.80000   0.20000   |    0.89760   0.89760   0.16320    |
 |   123    0.80000   0.80000   0.40000   |    0.89760   0.89760   0.32640    |
 |   124    0.80000   0.80000   0.60000   |    0.89760   0.89760   0.48960    |
 |   125    0.80000   0.80000   0.80000   |    0.89760   0.89760   0.65280    |
 *----------------------------------------------------------------------------*
  
  
 *---------------------------------- MAIN ------------------------------------*
 |  Number of Wannier Functions               :                76             |
 |  Number of Objective Wannier Functions     :                76             |
 |  Number of input Bloch states              :                81             |
 |  Output verbosity (1=low, 5=high)          :                 2             |
 |  Timing Level (1=low, 5=high)              :                 1             |
 |  Optimisation (0=memory, 3=speed)          :                 3             |
 |  Length Unit                               :               Ang             |
 |  Post-processing setup (write *.nnkp)      :                 F             |
 |  Using Gamma-only branch of algorithms     :                 F             |
 *----------------------------------------------------------------------------*
 *------------------------------- WANNIERISE ---------------------------------*
 |  Total number of iterations                :              5000             |
 |  Number of CG steps before reset           :                 5             |
 |  Trial step length for line search         :             2.000             |
 |  Convergence tolerence                     :         0.100E-11             |
 |  Convergence window                        :                 5             |
 |  Iterations between writing output         :               200             |
 |  Iterations between backing up to disk     :               100             |
 |  Write r^2_nm to file                      :                 F             |
 |  Write xyz WF centres to file              :                 F             |
 |  Write on-site energies <0n|H|0n> to file  :                 F             |
 |  Use guiding centre to control phases      :                 F             |
 |  Use phases for initial projections        :                 F             |
 *----------------------------------------------------------------------------*
 *------------------------------- DISENTANGLE --------------------------------*
 |  Using band disentanglement                :                 T             |
 |  Total number of iterations                :             10000             |
 |  Mixing ratio                              :             0.200             |
 |  Convergence tolerence                     :         1.000E-09             |
 |  Convergence window                        :                 3             |
 *----------------------------------------------------------------------------*
 *-------------------------------- PLOTTING ----------------------------------*
 |  Plotting interpolated bandstructure       :                 T             |
 |   Number of K-path sections                :                 7             |
 |   Divisions along first K-path section     :               100             |
 |   Output format                            :           gnuplot             |
 |   Output mode                              :               s-k             |
 *----------------------------------------------------------------------------*
 |   K-space path sections:                                                   |
 |    From: G       0.000  0.000  0.000     To: X       0.000  0.500  0.000   |
 |    From: X       0.000  0.500  0.000     To: M       0.500  0.500  0.000   |
 |    From: M       0.500  0.500  0.000     To: G       0.000  0.000  0.000   |
 |    From: G       0.000  0.000  0.000     To: Z       0.000  0.000  0.500   |
 |    From: Z       0.000  0.000  0.500     To: R       0.000  0.500  0.500   |
 |    From: R       0.000  0.500  0.500     To: A       0.500  0.500  0.500   |
 |    From: A       0.500  0.500  0.500     To: Z       0.000  0.000  0.500   |
 *----------------------------------------------------------------------------*
 |  Plotting Hamiltonian in WF basis          :                 T             |
 *----------------------------------------------------------------------------*

 *---------------------------------- K-MESH ----------------------------------*
 +----------------------------------------------------------------------------+
 |                    Distance to Nearest-Neighbour Shells                    |
 |                    ------------------------------------                    |
 |          Shell             Distance (Ang^-1)          Multiplicity         |
 |          -----             -----------------          ------------         |
 |             1                   0.163200                      2            |
 |             2                   0.224399                      4            |
 |             3                   0.277469                      8            |
 |             4                   0.317349                      4            |
 |             5                   0.326399                      2            |
 |             6                   0.356853                      8            |
 |             7                   0.396095                      8            |
 |             8                   0.448799                      4            |
 |             9                   0.455244                      8            |
 |            10                   0.477551                      8            |
 |            11                   0.489599                      2            |
 |            12                   0.501772                      8            |
 |            13                   0.527645                     16            |
 |            14                   0.538574                      8            |
 |            15                   0.554939                      8            |
 |            16                   0.583453                      8            |
 |            17                   0.598592                     16            |
 |            18                   0.634698                      4            |
 |            19                   0.652798                      2            |
 |            20                   0.655344                      8            |
 |            21                   0.664174                      8            |
 |            22                   0.673198                      4            |
 |            23                   0.690290                      8            |
 |            24                   0.692698                      8            |
 |            25                   0.701058                     16            |
 |            26                   0.709613                      8            |
 |            27                   0.713707                      8            |
 |            28                   0.725849                      8            |
 |            29                   0.728138                     16            |
 |            30                   0.748153                      8            |
 |            31                   0.781081                     16            |
 |            32                   0.792191                      8            |
 |            33                   0.801591                      8            |
 |            34                   0.809084                      8            |
 |            35                   0.815998                      2            |
 |            36                   0.823360                     16            |
 +----------------------------------------------------------------------------+
 | The b-vectors are chosen automatically                                     |
 | Shell:  1 w_b   18.7729156      (Ang^2)                                    |
 | Shell:  1 w_b   18.7729156      (Ang^2)                                    |
 | Shell:  2 w_b    9.9294760      (Ang^2)                                    |
 | The following shells are used:   1,  2                                     |
 +----------------------------------------------------------------------------+
 |                        Shell   # Nearest-Neighbours                        |
 |                        -----   --------------------                        |
 |                          1               2                                 |
 |                          2               4                                 |
 +----------------------------------------------------------------------------+
 | Completeness relation is fully satisfied [Eq. (B1), PRB 56, 12847 (1997)]  |
 +----------------------------------------------------------------------------+
 |                  b_k Vectors (Ang^-1) and Weights (Ang^2)                  |
 |                  ----------------------------------------                  |
 |            No.         b_k(x)      b_k(y)      b_k(z)        w_b           |
 |            ---        --------------------------------     --------        |
 |             1         0.000000    0.000000    0.163200    18.772916        |
 |             2         0.000000    0.000000   -0.163200    18.772916        |
 |             3         0.000000    0.224399    0.000000     9.929476        |
 |             4         0.224399    0.000000    0.000000     9.929476        |
 |             5         0.000000   -0.224399    0.000000     9.929476        |
 |             6        -0.224399    0.000000    0.000000     9.929476        |
 +----------------------------------------------------------------------------+
 |                           b_k Directions (Ang^-1)                          |
 |                           -----------------------                          |
 |            No.           x           y           z                         |
 |            ---        --------------------------------                     |
 |             1         0.000000    0.000000    0.163200                     |
 |             2         0.000000    0.224399    0.000000                     |
 |             3         0.224399    0.000000    0.000000                     |
 +----------------------------------------------------------------------------+
  
 Starting a new Wannier90 calculation ...


 Reading overlaps from smo.mmn    :  Created on 19Dec2025 at 20:51:43

 Reading projections from smo.amn :  Created on 19Dec2025 at 20:46:53

 *------------------------------- DISENTANGLE --------------------------------*
 +----------------------------------------------------------------------------+
 |                              Energy  Windows                               |
 |                              ---------------                               |
 |                   Outer:    5.00000  to   25.00000  (eV)                   |
 |                   Inner:   12.00000  to   16.50000  (eV)                   |
 +----------------------------------------------------------------------------+
 |                        K-points with Frozen States                         |
 |                        ---------------------------                         |
 |     1     2     3     4     5     6     7     8     9    10    11    12    |
 |    13    14    15    16    17    18    19    20    21    22    23    24    |
 |    25    26    27    28    29    30    31    32    33    34    35    36    |
 |    37    38    39    40    41    42    43    44    45    46    47    48    |
 |    49    50    51    52    53    54    55    56    57    58    59    60    |
 |    61    62    63    64    65    66    67    68    69    70    71    72    |
 |    73    74    75    76    77    78    79    80    81    82    83    84    |
 |    85    86    87    88    89    90    91    92    93    94    95    96    |
 |    97    98    99   100   101   102   103   104   105   106   107   108    |
 |   109   110   111   112   113   114   115   116   117   118   119   120    |
 |   121   122   123   124   125                                              |
 +----------------------------------------------------------------------------+
   Number of target bands to extract:   76
 +----------------------------------------------------------------------------+
 |                                  Windows                                   |
 |                                  -------                                   |
 |               K-point      Ndimwin     Ndimfroz    Nfirstwin               |
 |               ----------------------------------------------               |
 |                   1           81           17           1                  |
 |                   2           81           15           1                  |
 |                   3           81           14           1                  |
 |                   4           81           14           1                  |
 |                   5           81           15           1                  |
 |                   6           81           13           1                  |
 |                   7           81           12           1                  |
 |                   8           81           12           1                  |
 |                   9           81           12           1                  |
 |                  10           81           12           1                  |
 |                  11           81           12           1                  |
 |                  12           81           12           1                  |
 |                  13           81           12           1                  |
 |                  14           81           12           1                  |
 |                  15           81           12           1                  |
 |                  16           81           12           1                  |
 |                  17           81           12           1                  |
 |                  18           81           12           1                  |
 |                  19           81           12           1                  |
 |                  20           81           12           1                  |
 |                  21           81           13           1                  |
 |                  22           81           12           1                  |
 |                  23           81           12           1                  |
 |                  24           81           12           1                  |
 |                  25           81           12           1                  |
 |                  26           81           13           1                  |
 |                  27           81           12           1                  |
 |                  28           81           12           1                  |
 |                  29           81           12           1                  |
 |                  30           81           12           1                  |
 |                  31           81           13           1                  |
 |                  32           81           12           1                  |
 |                  33           81           12           1                  |
 |                  34           81           12           1                  |
 |                  35           81           12           1                  |
 |                  36           81           12           1                  |
 |                  37           81           12           1                  |
 |                  38           81           12           1                  |
 |                  39           81           12           1                  |
 |                  40           81           12           1                  |
 |                  41           81           12           1                  |
 |                  42           81           12           1                  |
 |                  43           81           12           1                  |
 |                  44           81           12           1                  |
 |                  45           81           12           1                  |
 |                  46           81           13           1                  |
 |                  47           81           12           1                  |
 |                  48           81           12           1                  |
 |                  49           81           12           1                  |
 |                  50           81           12           1                  |
 |                  51           81           12           1                  |
 |                  52           81           12           1                  |
 |                  53           81           12           1                  |
 |                  54           81           12           1                  |
 |                  55           81           12           1                  |
 |                  56           81           12           1                  |
 |                  57           81           12           1                  |
 |                  58           81           12           1                  |
 |                  59           81           12           1                  |
 |                  60           81           12           1                  |
 |                  61           81           13           1                  |
 |                  62           81           12           1                  |
 |                  63           81           12           1                  |
 |                  64           81           12           1                  |
 |                  65           81           12           1                  |
 |                  66           81           13           1                  |
 |                  67           81           12           1                  |
 |                  68           81           12           1                  |
 |                  69           81           12           1                  |
 |                  70           81           12           1                  |
 |                  71           81           12           1                  |
 |                  72           81           12           1                  |
 |                  73           81           12           1                  |
 |                  74           81           12           1                  |
 |                  75           81           12           1                  |
 |                  76           81           12           1                  |
 |                  77           81           12           1                  |
 |                  78           81           12           1                  |
 |                  79           81           12           1                  |
 |                  80           81           12           1                  |
 |                  81           81           12           1                  |
 |                  82           81           12           1                  |
 |                  83           81           12           1                  |
 |                  84           81           12           1                  |
 |                  85           81           12           1                  |
 |                  86           81           13           1                  |
 |                  87           81           12           1                  |
 |                  88           81           12           1                  |
 |                  89           81           12           1                  |
 |                  90           81           12           1                  |
 |                  91           81           13           1                  |
 |                  92           81           12           1                  |
 |                  93           81           12           1                  |
 |                  94           81           12           1                  |
 |                  95           81           12           1                  |
 |                  96           81           12           1                  |
 |                  97           81           12           1                  |
 |                  98           81           12           1                  |
 |                  99           81           12           1                  |
 |                 100           81           12           1                  |
 |                 101           81           13           1                  |
 |                 102           81           12           1                  |
 |                 103           81           12           1                  |
 |                 104           81           12           1                  |
 |                 105           81           12           1                  |
 |                 106           81           13           1                  |
 |                 107           81           12           1                  |
 |                 108           81           12           1                  |
 |                 109           81           12           1                  |
 |                 110           81           12           1                  |
 |                 111           81           12           1                  |
 |                 112           81           12           1                  |
 |                 113           81           12           1                  |
 |                 114           81           12           1                  |
 |                 115           81           12           1                  |
 |                 116           81           12           1                  |
 |                 117           81           12           1                  |
 |                 118           81           12           1                  |
 |                 119           81           12           1                  |
 |                 120           81           12           1                  |
 |                 121           81           13           1                  |
 |                 122           81           12           1                  |
 |                 123           81           12           1                  |
 |                 124           81           12           1                  |
 |                 125           81           12           1                  |
 +----------------------------------------------------------------------------+

                   Unitarised projection of Wannier functions                  
                   ------------------------------------------                  
   A_mn = <psi_m|g_n> --> S = A.A^+ --> U = S^-1/2.A
   In dis_project... done
   Using an inner window (linner = T)
   In dis_proj_froz... done

                   Extraction of optimally-connected subspace                  
                   ------------------------------------------                  
 +---------------------------------------------------------------------+<-- DIS
 |  Iter     Omega_I(i-1)      Omega_I(i)      Delta (frac.)    Time   |<-- DIS
 +---------------------------------------------------------------------+<-- DIS
       1     104.77143720     101.45681647       3.267E-02      0.00    <-- DIS
       2     103.98505695     101.12156552       2.832E-02      0.14    <-- DIS
       3     103.39545468     100.85884048       2.515E-02      0.28    <-- DIS
       4     102.87327392     100.64337452       2.216E-02      0.41    <-- DIS
       5     102.41398249     100.46134190       1.944E-02      0.54    <-- DIS
       6     102.01141535     100.30454637       1.702E-02      0.68    <-- DIS
       7     101.65909908     100.16770698       1.489E-02      0.81    <-- DIS
       8     101.35084395     100.04715733       1.303E-02      0.94    <-- DIS
       9     101.08098875      99.94019600       1.141E-02      1.07    <-- DIS
      10     100.84447932      99.84474355       1.001E-02      1.20    <-- DIS
      11     100.63686774      99.75914898       8.798E-03      1.33    <-- DIS
      12     100.45427496      99.68207247       7.747E-03      1.46    <-- DIS
      13     100.29333801      99.61240933       6.836E-03      1.59    <-- DIS
      14     100.15115289      99.54923779       6.046E-03      1.72    <-- DIS
      15     100.02521854      99.49178128       5.362E-03      1.85    <-- DIS
      16      99.91338449      99.43938038       4.767E-03      1.98    <-- DIS
      17      99.81380353      99.39147127       4.249E-03      2.11    <-- DIS
      18      99.72488951      99.34756893       3.798E-03      2.24    <-- DIS
      19      99.64528035      99.30725380       3.404E-03      2.37    <-- DIS
      20      99.57380582      99.27016111       3.059E-03      2.50    <-- DIS
      21      99.50945969      99.23597224       2.756E-03      2.64    <-- DIS
      22      99.45137583      99.20440761       2.489E-03      2.77    <-- DIS
      23      99.39880760      99.17522097       2.254E-03      2.90    <-- DIS
      24      99.35111044      99.14819451       2.047E-03      3.03    <-- DIS
      25      99.30772680      99.12313496       1.862E-03      3.16    <-- DIS
      26      99.26817353      99.09987017       1.698E-03      3.29    <-- DIS
      27      99.23203098      99.07824637       1.552E-03      3.42    <-- DIS
      28      99.19893386      99.05812578       1.421E-03      3.55    <-- DIS
      29      99.16856343      99.03938460       1.304E-03      3.68    <-- DIS
      30      99.14064084      99.02191129       1.199E-03      3.81    <-- DIS
      31      99.11492155      99.00560511       1.104E-03      3.94    <-- DIS
      32      99.09119048      98.99037486       1.018E-03      4.08    <-- DIS
      33      99.06925803      98.97613781       9.408E-04      4.21    <-- DIS
      34      99.04895652      98.96281874       8.704E-04      4.34    <-- DIS
      35      99.03013734      98.95034911       8.063E-04      4.46    <-- DIS
      36      99.01266833      98.93866640       7.480E-04      4.59    <-- DIS
      37      98.99643173      98.92771343       6.946E-04      4.73    <-- DIS
      38      98.98132227      98.91743786       6.458E-04      4.85    <-- DIS
      39      98.96724561      98.90779166       6.011E-04      4.98    <-- DIS
      40      98.95411704      98.89873075       5.600E-04      5.12    <-- DIS
      41      98.94186022      98.89021457       5.223E-04      5.25    <-- DIS
      42      98.93040628      98.88220577       4.875E-04      5.37    <-- DIS
      43      98.91969288      98.87466992       4.554E-04      5.50    <-- DIS
      44      98.90966348      98.86757523       4.257E-04      5.63    <-- DIS
      45      98.90026673      98.86089233       3.983E-04      5.76    <-- DIS
      46      98.89145583      98.85459406       3.729E-04      5.89    <-- DIS
      47      98.88318812      98.84865525       3.494E-04      6.03    <-- DIS
      48      98.87542457      98.84305261       3.275E-04      6.17    <-- DIS
      49      98.86812946      98.83776449       3.072E-04      6.30    <-- DIS
      50      98.86127003      98.83277084       2.884E-04      6.41    <-- DIS
      51      98.85481618      98.82805301       2.708E-04      6.53    <-- DIS
      52      98.84874022      98.82359366       2.545E-04      6.66    <-- DIS
      53      98.84301664      98.81937666       2.392E-04      6.78    <-- DIS
      54      98.83762190      98.81538699       2.250E-04      6.92    <-- DIS
      55      98.83253428      98.81161068       2.118E-04      7.06    <-- DIS
      56      98.82773368      98.80803469       1.994E-04      7.20    <-- DIS
      57      98.82320150      98.80464686       1.878E-04      7.32    <-- DIS
      58      98.81892050      98.80143584       1.770E-04      7.46    <-- DIS
      59      98.81487469      98.79839105       1.668E-04      7.59    <-- DIS
      60      98.81104924      98.79550260       1.574E-04      7.73    <-- DIS
      61      98.80743034      98.79276123       1.485E-04      7.86    <-- DIS
      62      98.80400519      98.79015831       1.402E-04      8.00    <-- DIS
      63      98.80076184      98.78768576       1.324E-04      8.14    <-- DIS
      64      98.79768918      98.78533601       1.251E-04      8.27    <-- DIS
      65      98.79477686      98.78310197       1.182E-04      8.40    <-- DIS
      66      98.79201522      98.78097703       1.117E-04      8.54    <-- DIS
      67      98.78939525      98.77895497       1.057E-04      8.67    <-- DIS
      68      98.78690853      98.77702997       1.000E-04      8.81    <-- DIS
      69      98.78454722      98.77519656       9.467E-05      8.94    <-- DIS
      70      98.78230396      98.77344964       8.964E-05      9.08    <-- DIS
      71      98.78017189      98.77178439       8.492E-05      9.21    <-- DIS
      72      98.77814459      98.77019632       8.047E-05      9.35    <-- DIS
      73      98.77621604      98.76868119       7.629E-05      9.48    <-- DIS
      74      98.77438061      98.76723503       7.235E-05      9.61    <-- DIS
      75      98.77263303      98.76585410       6.864E-05      9.75    <-- DIS
      76      98.77096836      98.76453491       6.514E-05      9.90    <-- DIS
      77      98.76938197      98.76327414       6.184E-05     10.04    <-- DIS
      78      98.76786950      98.76206871       5.873E-05     10.17    <-- DIS
      79      98.76642689      98.76091570       5.580E-05     10.31    <-- DIS
      80      98.76505030      98.75981236       5.304E-05     10.45    <-- DIS
      81      98.76373615      98.75875612       5.043E-05     10.59    <-- DIS
      82      98.76248106      98.75774453       4.796E-05     10.73    <-- DIS
      83      98.76128185      98.75677532       4.563E-05     10.87    <-- DIS
      84      98.76013555      98.75584632       4.343E-05     11.01    <-- DIS
      85      98.75903937      98.75495551       4.135E-05     11.15    <-- DIS
      86      98.75799065      98.75410096       3.939E-05     11.27    <-- DIS
      87      98.75698694      98.75328088       3.753E-05     11.39    <-- DIS
      88      98.75602588      98.75249357       3.577E-05     11.53    <-- DIS
      89      98.75510529      98.75173740       3.410E-05     11.66    <-- DIS
      90      98.75422310      98.75101088       3.253E-05     11.78    <-- DIS
      91      98.75337736      98.75031256       3.104E-05     11.91    <-- DIS
      92      98.75256624      98.74964109       2.962E-05     12.03    <-- DIS
      93      98.75178800      98.74899521       2.828E-05     12.15    <-- DIS
      94      98.75104102      98.74837370       2.701E-05     12.27    <-- DIS
      95      98.75032375      98.74777542       2.581E-05     12.38    <-- DIS
      96      98.74963475      98.74719929       2.466E-05     12.50    <-- DIS
      97      98.74897264      98.74664430       2.358E-05     12.62    <-- DIS
      98      98.74833613      98.74610948       2.255E-05     12.74    <-- DIS
      99      98.74772400      98.74559392       2.157E-05     12.86    <-- DIS
     100      98.74713510      98.74509675       2.064E-05     12.98    <-- DIS
     101      98.74656833      98.74461715       1.976E-05     13.11    <-- DIS
     102      98.74602267      98.74415436       1.892E-05     13.24    <-- DIS
     103      98.74549713      98.74370762       1.812E-05     13.37    <-- DIS
     104      98.74499081      98.74327626       1.736E-05     13.50    <-- DIS
     105      98.74450282      98.74285960       1.664E-05     13.62    <-- DIS
     106      98.74403234      98.74245703       1.595E-05     13.75    <-- DIS
     107      98.74357859      98.74206793       1.530E-05     13.87    <-- DIS
     108      98.74314082      98.74169177       1.468E-05     13.99    <-- DIS
     109      98.74271834      98.74132798       1.408E-05     14.12    <-- DIS
     110      98.74231048      98.74097607       1.351E-05     14.25    <-- DIS
     111      98.74191661      98.74063556       1.297E-05     14.37    <-- DIS
     112      98.74153614      98.74030597       1.246E-05     14.50    <-- DIS
     113      98.74116849      98.73998688       1.197E-05     14.63    <-- DIS
     114      98.74081312      98.73967787       1.150E-05     14.76    <-- DIS
     115      98.74046953      98.73937854       1.105E-05     14.89    <-- DIS
     116      98.74013722      98.73908852       1.062E-05     15.02    <-- DIS
     117      98.73981575      98.73880744       1.021E-05     15.15    <-- DIS
     118      98.73950466      98.73853496       9.821E-06     15.27    <-- DIS
     119      98.73920354      98.73827076       9.447E-06     15.42    <-- DIS
     120      98.73891200      98.73801453       9.089E-06     15.56    <-- DIS
     121      98.73862965      98.73776596       8.747E-06     15.70    <-- DIS
     122      98.73835614      98.73752478       8.420E-06     15.84    <-- DIS
     123      98.73809112      98.73729072       8.106E-06     15.98    <-- DIS
     124      98.73783428      98.73706352       7.806E-06     16.12    <-- DIS
     125      98.73758529      98.73684292       7.519E-06     16.25    <-- DIS
     126      98.73734386      98.73662870       7.243E-06     16.39    <-- DIS
     127      98.73710971      98.73642064       6.979E-06     16.52    <-- DIS
     128      98.73688257      98.73621851       6.726E-06     16.66    <-- DIS
     129      98.73666218      98.73602210       6.483E-06     16.79    <-- DIS
     130      98.73644829      98.73583123       6.250E-06     16.94    <-- DIS
     131      98.73624068      98.73564570       6.026E-06     17.07    <-- DIS
     132      98.73603911      98.73546534       5.811E-06     17.20    <-- DIS
     133      98.73584338      98.73528996       5.605E-06     17.34    <-- DIS
     134      98.73565327      98.73511940       5.407E-06     17.47    <-- DIS
     135      98.73546859      98.73495351       5.217E-06     17.61    <-- DIS
     136      98.73528916      98.73479213       5.034E-06     17.74    <-- DIS
     137      98.73511479      98.73463512       4.858E-06     17.88    <-- DIS
     138      98.73494532      98.73448232       4.689E-06     18.01    <-- DIS
     139      98.73478056      98.73433362       4.527E-06     18.14    <-- DIS
     140      98.73462038      98.73418887       4.370E-06     18.27    <-- DIS
     141      98.73446462      98.73404796       4.220E-06     18.40    <-- DIS
     142      98.73431313      98.73391076       4.075E-06     18.53    <-- DIS
     143      98.73416576      98.73377716       3.936E-06     18.66    <-- DIS
     144      98.73402240      98.73364704       3.802E-06     18.78    <-- DIS
     145      98.73388291      98.73352031       3.673E-06     18.91    <-- DIS
     146      98.73374717      98.73339685       3.548E-06     19.04    <-- DIS
     147      98.73361505      98.73327658       3.428E-06     19.17    <-- DIS
     148      98.73348644      98.73315939       3.313E-06     19.30    <-- DIS
     149      98.73336125      98.73304519       3.201E-06     19.44    <-- DIS
     150      98.73323935      98.73293389       3.094E-06     19.56    <-- DIS
     151      98.73312064      98.73282541       2.990E-06     19.70    <-- DIS
     152      98.73300504      98.73271967       2.890E-06     19.83    <-- DIS
     153      98.73289244      98.73261658       2.794E-06     19.96    <-- DIS
     154      98.73278276      98.73251608       2.701E-06     20.09    <-- DIS
     155      98.73267591      98.73241808       2.611E-06     20.22    <-- DIS
     156      98.73257180      98.73232251       2.525E-06     20.35    <-- DIS
     157      98.73247035      98.73222931       2.441E-06     20.48    <-- DIS
     158      98.73237149      98.73213841       2.361E-06     20.62    <-- DIS
     159      98.73227513      98.73204974       2.283E-06     20.74    <-- DIS
     160      98.73218122      98.73196325       2.208E-06     20.87    <-- DIS
     161      98.73208967      98.73187887       2.135E-06     21.00    <-- DIS
     162      98.73200041      98.73179654       2.065E-06     21.13    <-- DIS
     163      98.73191340      98.73171621       1.997E-06     21.26    <-- DIS
     164      98.73182855      98.73163782       1.932E-06     21.39    <-- DIS
     165      98.73174580      98.73156132       1.869E-06     21.52    <-- DIS
     166      98.73166511      98.73148667       1.807E-06     21.66    <-- DIS
     167      98.73158641      98.73141380       1.748E-06     21.79    <-- DIS
     168      98.73150965      98.73134267       1.691E-06     21.90    <-- DIS
     169      98.73143477      98.73127324       1.636E-06     22.04    <-- DIS
     170      98.73136173      98.73120546       1.583E-06     22.18    <-- DIS
     171      98.73129046      98.73113929       1.531E-06     22.31    <-- DIS
     172      98.73122093      98.73107468       1.481E-06     22.45    <-- DIS
     173      98.73115308      98.73101160       1.433E-06     22.57    <-- DIS
     174      98.73108688      98.73095000       1.386E-06     22.71    <-- DIS
     175      98.73102227      98.73088985       1.341E-06     22.83    <-- DIS
     176      98.73095922      98.73083110       1.298E-06     22.96    <-- DIS
     177      98.73089768      98.73077373       1.255E-06     23.08    <-- DIS
     178      98.73083761      98.73071769       1.215E-06     23.20    <-- DIS
     179      98.73077898      98.73066296       1.175E-06     23.31    <-- DIS
     180      98.73072174      98.73060949       1.137E-06     23.43    <-- DIS
     181      98.73066587      98.73055727       1.100E-06     23.55    <-- DIS
     182      98.73061132      98.73050624       1.064E-06     23.67    <-- DIS
     183      98.73055805      98.73045640       1.030E-06     23.78    <-- DIS
     184      98.73050605      98.73040770       9.961E-07     23.90    <-- DIS
     185      98.73045527      98.73036012       9.637E-07     24.02    <-- DIS
     186      98.73040568      98.73031362       9.324E-07     24.14    <-- DIS
     187      98.73035725      98.73026819       9.021E-07     24.26    <-- DIS
     188      98.73030996      98.73022380       8.727E-07     24.38    <-- DIS
     189      98.73026377      98.73018042       8.443E-07     24.50    <-- DIS
     190      98.73021866      98.73013802       8.168E-07     24.62    <-- DIS
     191      98.73017460      98.73009658       7.902E-07     24.75    <-- DIS
     192      98.73013155      98.73005608       7.644E-07     24.87    <-- DIS
     193      98.73008951      98.73001650       7.395E-07     24.99    <-- DIS
     194      98.73004844      98.72997780       7.154E-07     25.11    <-- DIS
     195      98.73000831      98.72993998       6.921E-07     25.22    <-- DIS
     196      98.72996911      98.72990301       6.695E-07     25.34    <-- DIS
     197      98.72993081      98.72986687       6.476E-07     25.48    <-- DIS
     198      98.72989338      98.72983153       6.264E-07     25.61    <-- DIS
     199      98.72985682      98.72979699       6.060E-07     25.73    <-- DIS
     200      98.72982109      98.72976322       5.862E-07     25.86    <-- DIS
     201      98.72978617      98.72973020       5.670E-07     25.98    <-- DIS
     202      98.72975206      98.72969791       5.484E-07     26.11    <-- DIS
     203      98.72971871      98.72966634       5.305E-07     26.24    <-- DIS
     204      98.72968613      98.72963547       5.131E-07     26.36    <-- DIS
     205      98.72965428      98.72960528       4.963E-07     26.49    <-- DIS
     206      98.72962315      98.72957576       4.800E-07     26.61    <-- DIS
     207      98.72959273      98.72954689       4.643E-07     26.74    <-- DIS
     208      98.72956299      98.72951866       4.490E-07     26.87    <-- DIS
     209      98.72953392      98.72949105       4.343E-07     27.00    <-- DIS
     210      98.72950551      98.72946404       4.200E-07     27.14    <-- DIS
     211      98.72947773      98.72943763       4.062E-07     27.27    <-- DIS
     212      98.72945058      98.72941179       3.929E-07     27.40    <-- DIS
     213      98.72942404      98.72938652       3.800E-07     27.54    <-- DIS
     214      98.72939808      98.72936180       3.675E-07     27.68    <-- DIS
     215      98.72937271      98.72933762       3.554E-07     27.81    <-- DIS
     216      98.72934790      98.72931397       3.437E-07     27.95    <-- DIS
     217      98.72932365      98.72929083       3.324E-07     28.09    <-- DIS
     218      98.72929993      98.72926819       3.215E-07     28.22    <-- DIS
     219      98.72927674      98.72924604       3.109E-07     28.35    <-- DIS
     220      98.72925406      98.72922437       3.007E-07     28.48    <-- DIS
     221      98.72923189      98.72920317       2.908E-07     28.62    <-- DIS
     222      98.72921021      98.72918243       2.813E-07     28.76    <-- DIS
     223      98.72918900      98.72916214       2.721E-07     28.89    <-- DIS
     224      98.72916826      98.72914228       2.631E-07     29.03    <-- DIS
     225      98.72914798      98.72912285       2.545E-07     29.16    <-- DIS
     226      98.72912814      98.72910383       2.462E-07     29.29    <-- DIS
     227      98.72910874      98.72908523       2.381E-07     29.41    <-- DIS
     228      98.72908976      98.72906702       2.303E-07     29.54    <-- DIS
     229      98.72907120      98.72904920       2.228E-07     29.67    <-- DIS
     230      98.72905304      98.72903176       2.156E-07     29.80    <-- DIS
     231      98.72903529      98.72901470       2.085E-07     29.93    <-- DIS
     232      98.72901791      98.72899799       2.018E-07     30.06    <-- DIS
     233      98.72900092      98.72898165       1.952E-07     30.19    <-- DIS
     234      98.72898430      98.72896565       1.889E-07     30.31    <-- DIS
     235      98.72896803      98.72894999       1.828E-07     30.44    <-- DIS
     236      98.72895212      98.72893466       1.769E-07     30.58    <-- DIS
     237      98.72893656      98.72891965       1.712E-07     30.71    <-- DIS
     238      98.72892133      98.72890497       1.657E-07     30.84    <-- DIS
     239      98.72890643      98.72889059       1.604E-07     30.97    <-- DIS
     240      98.72889185      98.72887652       1.553E-07     31.10    <-- DIS
     241      98.72887758      98.72886274       1.504E-07     31.23    <-- DIS
     242      98.72886363      98.72884925       1.456E-07     31.36    <-- DIS
     243      98.72884997      98.72883605       1.410E-07     31.49    <-- DIS
     244      98.72883660      98.72882312       1.366E-07     31.62    <-- DIS
     245      98.72882353      98.72881046       1.323E-07     31.74    <-- DIS
     246      98.72881073      98.72879807       1.282E-07     31.87    <-- DIS
     247      98.72879821      98.72878594       1.242E-07     32.00    <-- DIS
     248      98.72878595      98.72877406       1.204E-07     32.13    <-- DIS
     249      98.72877396      98.72876243       1.167E-07     32.26    <-- DIS
     250      98.72876222      98.72875105       1.131E-07     32.38    <-- DIS
     251      98.72875073      98.72873989       1.097E-07     32.52    <-- DIS
     252      98.72873948      98.72872898       1.064E-07     32.65    <-- DIS
     253      98.72872848      98.72871828       1.033E-07     32.78    <-- DIS
     254      98.72871771      98.72870781       1.002E-07     32.91    <-- DIS
     255      98.72870716      98.72869756       9.726E-08     33.04    <-- DIS
     256      98.72869684      98.72868752       9.442E-08     33.18    <-- DIS
     257      98.72868674      98.72867769       9.170E-08     33.31    <-- DIS
     258      98.72867685      98.72866805       8.908E-08     33.44    <-- DIS
     259      98.72866717      98.72865862       8.656E-08     33.57    <-- DIS
     260      98.72865769      98.72864939       8.414E-08     33.70    <-- DIS
     261      98.72864842      98.72864034       8.181E-08     33.82    <-- DIS
     262      98.72863933      98.72863148       7.957E-08     33.96    <-- DIS
     263      98.72863044      98.72862280       7.742E-08     34.07    <-- DIS
     264      98.72862174      98.72861430       7.535E-08     34.19    <-- DIS
     265      98.72861321      98.72860597       7.337E-08     34.32    <-- DIS
     266      98.72860487      98.72859781       7.146E-08     34.43    <-- DIS
     267      98.72859670      98.72858982       6.963E-08     34.56    <-- DIS
     268      98.72858870      98.72858200       6.788E-08     34.67    <-- DIS
     269      98.72858087      98.72857433       6.619E-08     34.79    <-- DIS
     270      98.72857320      98.72856682       6.458E-08     34.91    <-- DIS
     271      98.72856569      98.72855946       6.303E-08     35.02    <-- DIS
     272      98.72855833      98.72855226       6.155E-08     35.14    <-- DIS
     273      98.72855113      98.72854519       6.013E-08     35.26    <-- DIS
     274      98.72854408      98.72853828       5.877E-08     35.38    <-- DIS
     275      98.72853717      98.72853150       5.747E-08     35.50    <-- DIS
     276      98.72853041      98.72852486       5.622E-08     35.62    <-- DIS
     277      98.72852379      98.72851835       5.503E-08     35.74    <-- DIS
     278      98.72851730      98.72851198       5.389E-08     35.86    <-- DIS
     279      98.72851095      98.72850573       5.280E-08     35.98    <-- DIS
     280      98.72850472      98.72849961       5.176E-08     36.10    <-- DIS
     281      98.72849863      98.72849362       5.077E-08     36.22    <-- DIS
     282      98.72849266      98.72848774       4.982E-08     36.33    <-- DIS
     283      98.72848681      98.72848198       4.891E-08     36.45    <-- DIS
     284      98.72848109      98.72847634       4.805E-08     36.58    <-- DIS
     285      98.72847548      98.72847081       4.723E-08     36.72    <-- DIS
     286      98.72846998      98.72846540       4.644E-08     36.85    <-- DIS
     287      98.72846460      98.72846009       4.570E-08     36.98    <-- DIS
     288      98.72845933      98.72845489       4.499E-08     37.11    <-- DIS
     289      98.72845416      98.72844979       4.431E-08     37.25    <-- DIS
     290      98.72844910      98.72844479       4.367E-08     37.39    <-- DIS
     291      98.72844414      98.72843989       4.307E-08     37.53    <-- DIS
     292      98.72843929      98.72843509       4.249E-08     37.66    <-- DIS
     293      98.72843453      98.72843039       4.194E-08     37.80    <-- DIS
     294      98.72842987      98.72842578       4.142E-08     37.93    <-- DIS
     295      98.72842530      98.72842126       4.093E-08     38.05    <-- DIS
     296      98.72842083      98.72841683       4.047E-08     38.19    <-- DIS
     297      98.72841644      98.72841249       4.003E-08     38.32    <-- DIS
     298      98.72841215      98.72840824       3.961E-08     38.46    <-- DIS
     299      98.72840794      98.72840407       3.922E-08     38.60    <-- DIS
     300      98.72840382      98.72839998       3.886E-08     38.74    <-- DIS
     301      98.72839977      98.72839597       3.851E-08     38.87    <-- DIS
     302      98.72839581      98.72839204       3.819E-08     39.00    <-- DIS
     303      98.72839193      98.72838819       3.788E-08     39.14    <-- DIS
     304      98.72838813      98.72838442       3.759E-08     39.27    <-- DIS
     305      98.72838440      98.72838072       3.733E-08     39.41    <-- DIS
     306      98.72838075      98.72837709       3.708E-08     39.55    <-- DIS
     307      98.72837717      98.72837354       3.684E-08     39.68    <-- DIS
     308      98.72837367      98.72837005       3.663E-08     39.82    <-- DIS
     309      98.72837023      98.72836663       3.642E-08     39.96    <-- DIS
     310      98.72836686      98.72836328       3.624E-08     40.10    <-- DIS
     311      98.72836356      98.72836000       3.607E-08     40.25    <-- DIS
     312      98.72836032      98.72835678       3.591E-08     40.39    <-- DIS
     313      98.72835715      98.72835362       3.576E-08     40.54    <-- DIS
     314      98.72835404      98.72835052       3.563E-08     40.69    <-- DIS
     315      98.72835099      98.72834749       3.550E-08     40.84    <-- DIS
     316      98.72834800      98.72834451       3.539E-08     40.98    <-- DIS
     317      98.72834508      98.72834159       3.529E-08     41.12    <-- DIS
     318      98.72834221      98.72833873       3.520E-08     41.26    <-- DIS
     319      98.72833939      98.72833592       3.512E-08     41.40    <-- DIS
     320      98.72833663      98.72833317       3.505E-08     41.55    <-- DIS
     321      98.72833393      98.72833048       3.498E-08     41.69    <-- DIS
     322      98.72833128      98.72832783       3.493E-08     41.83    <-- DIS
     323      98.72832868      98.72832524       3.488E-08     41.97    <-- DIS
     324      98.72832613      98.72832269       3.484E-08     42.11    <-- DIS
     325      98.72832363      98.72832020       3.481E-08     42.25    <-- DIS
     326      98.72832119      98.72831775       3.478E-08     42.37    <-- DIS
     327      98.72831878      98.72831535       3.476E-08     42.49    <-- DIS
     328      98.72831643      98.72831300       3.474E-08     42.61    <-- DIS
     329      98.72831412      98.72831069       3.473E-08     42.73    <-- DIS
     330      98.72831186      98.72830843       3.473E-08     42.85    <-- DIS
     331      98.72830964      98.72830621       3.473E-08     42.97    <-- DIS
     332      98.72830746      98.72830403       3.473E-08     43.09    <-- DIS
     333      98.72830533      98.72830190       3.474E-08     43.21    <-- DIS
     334      98.72830324      98.72829981       3.475E-08     43.33    <-- DIS
     335      98.72830119      98.72829775       3.477E-08     43.45    <-- DIS
     336      98.72829917      98.72829574       3.479E-08     43.59    <-- DIS
     337      98.72829720      98.72829376       3.481E-08     43.82    <-- DIS
     338      98.72829527      98.72829183       3.484E-08     44.12    <-- DIS
     339      98.72829337      98.72828993       3.487E-08     44.40    <-- DIS
     340      98.72829151      98.72828806       3.490E-08     44.68    <-- DIS
     341      98.72828968      98.72828624       3.493E-08     44.96    <-- DIS
     342      98.72828789      98.72828444       3.496E-08     45.23    <-- DIS
     343      98.72828614      98.72828268       3.500E-08     45.46    <-- DIS
     344      98.72828442      98.72828096       3.504E-08     45.69    <-- DIS
     345      98.72828273      98.72827926       3.507E-08     45.90    <-- DIS
     346      98.72828107      98.72827760       3.511E-08     46.12    <-- DIS
     347      98.72827945      98.72827598       3.516E-08     46.32    <-- DIS
     348      98.72827785      98.72827438       3.520E-08     46.53    <-- DIS
     349      98.72827629      98.72827281       3.524E-08     46.73    <-- DIS
     350      98.72827476      98.72827127       3.528E-08     46.94    <-- DIS
     351      98.72827325      98.72826976       3.533E-08     47.16    <-- DIS
     352      98.72827178      98.72826829       3.537E-08     47.38    <-- DIS
     353      98.72827033      98.72826683       3.541E-08     47.61    <-- DIS
     354      98.72826891      98.72826541       3.545E-08     47.82    <-- DIS
     355      98.72826752      98.72826401       3.550E-08     48.03    <-- DIS
     356      98.72826615      98.72826264       3.554E-08     48.20    <-- DIS
     357      98.72826481      98.72826130       3.558E-08     48.37    <-- DIS
     358      98.72826349      98.72825998       3.562E-08     48.53    <-- DIS
     359      98.72826220      98.72825868       3.567E-08     48.69    <-- DIS
     360      98.72826094      98.72825741       3.571E-08     48.84    <-- DIS
     361      98.72825970      98.72825617       3.575E-08     49.01    <-- DIS
     362      98.72825848      98.72825494       3.578E-08     49.17    <-- DIS
     363      98.72825728      98.72825374       3.582E-08     49.33    <-- DIS
     364      98.72825611      98.72825257       3.586E-08     49.48    <-- DIS
     365      98.72825496      98.72825141       3.589E-08     49.62    <-- DIS
     366      98.72825383      98.72825028       3.593E-08     49.77    <-- DIS
     367      98.72825272      98.72824917       3.596E-08     49.93    <-- DIS
     368      98.72825163      98.72824808       3.599E-08     50.09    <-- DIS
     369      98.72825056      98.72824701       3.602E-08     50.25    <-- DIS
     370      98.72824951      98.72824595       3.605E-08     50.41    <-- DIS
     371      98.72824849      98.72824492       3.608E-08     50.54    <-- DIS
     372      98.72824748      98.72824391       3.611E-08     50.70    <-- DIS
     373      98.72824649      98.72824292       3.613E-08     50.85    <-- DIS
     374      98.72824551      98.72824195       3.615E-08     50.99    <-- DIS
     375      98.72824456      98.72824099       3.617E-08     51.15    <-- DIS
     376      98.72824363      98.72824005       3.619E-08     51.30    <-- DIS
     377      98.72824271      98.72823913       3.621E-08     51.43    <-- DIS
     378      98.72824180      98.72823823       3.623E-08     51.59    <-- DIS
     379      98.72824092      98.72823734       3.624E-08     51.75    <-- DIS
     380      98.72824005      98.72823647       3.625E-08     51.89    <-- DIS
     381      98.72823920      98.72823562       3.626E-08     52.04    <-- DIS
     382      98.72823836      98.72823478       3.627E-08     52.20    <-- DIS
     383      98.72823754      98.72823396       3.628E-08     52.36    <-- DIS
     384      98.72823673      98.72823315       3.628E-08     52.52    <-- DIS
     385      98.72823594      98.72823236       3.629E-08     52.68    <-- DIS
     386      98.72823516      98.72823158       3.629E-08     52.84    <-- DIS
     387      98.72823440      98.72823082       3.629E-08     52.99    <-- DIS
     388      98.72823365      98.72823007       3.628E-08     53.15    <-- DIS
     389      98.72823292      98.72822934       3.628E-08     53.29    <-- DIS
     390      98.72823220      98.72822861       3.627E-08     53.45    <-- DIS
     391      98.72823149      98.72822791       3.626E-08     53.60    <-- DIS
     392      98.72823079      98.72822721       3.625E-08     53.76    <-- DIS
     393      98.72823011      98.72822653       3.624E-08     53.90    <-- DIS
     394      98.72822944      98.72822586       3.623E-08     54.05    <-- DIS
     395      98.72822878      98.72822520       3.621E-08     54.21    <-- DIS
     396      98.72822813      98.72822456       3.619E-08     54.36    <-- DIS
     397      98.72822750      98.72822393       3.617E-08     54.52    <-- DIS
     398      98.72822687      98.72822330       3.615E-08     54.67    <-- DIS
     399      98.72822626      98.72822269       3.612E-08     54.82    <-- DIS
[...]
  WF centre and spread   13  (  2.800000,  2.800000,  3.850000 )     1.12062205
  WF centre and spread   14  (  2.800000,  2.800000,  3.850000 )     1.13746852
  WF centre and spread   15  (  2.800001,  2.800001,  3.850000 )     1.02358106
  WF centre and spread   16  (  2.800000,  2.799999, -0.000001 )     1.15495558
  WF centre and spread   17  (  2.800000,  2.800000, -0.000000 )     1.12092178
  WF centre and spread   18  (  2.800000,  2.800000,  0.000000 )     1.12062961
  WF centre and spread   19  (  2.800000,  2.799999, -0.000000 )     1.13748038
  WF centre and spread   20  (  2.800000,  2.799999, -0.000000 )     1.02360449
  WF centre and spread   21  ( -0.000003,  2.799994,  1.925011 )     3.00138838
  WF centre and spread   22  (  0.000006,  2.800000,  1.924973 )     2.37020199
  WF centre and spread   23  (  0.000001,  2.799999,  1.925023 )     2.38172869
  WF centre and spread   24  ( -0.000003,  2.800002,  1.925004 )     2.40359911
  WF centre and spread   25  (  0.000006,  2.799983,  1.924998 )     2.86669898
  WF centre and spread   26  (  0.000002,  2.800000,  5.775013 )     3.00139353
  WF centre and spread   27  ( -0.000005,  2.800000,  5.774995 )     2.37016810
  WF centre and spread   28  ( -0.000001,  2.800008,  5.775008 )     2.38170712
  WF centre and spread   29  (  0.000002,  2.799999,  5.774995 )     2.40362522
  WF centre and spread   30  ( -0.000007,  2.799995,  5.775000 )     2.86670491
  WF centre and spread   31  (  2.799996, -0.000002,  5.774989 )     3.00139038
  WF centre and spread   32  (  2.799996,  0.000001,  5.774998 )     2.37018147
  WF centre and spread   33  (  2.800000,  0.000003,  5.775010 )     2.38170595
  WF centre and spread   34  (  2.800004,  0.000001,  5.774996 )     2.40362567
  WF centre and spread   35  (  2.799997, -0.000006,  5.775004 )     2.86670394
  WF centre and spread   36  (  2.800005, -0.000002,  1.924989 )     3.00138295
  WF centre and spread   37  (  2.800005, -0.000001,  1.924970 )     2.37017947
  WF centre and spread   38  (  2.800000, -0.000005,  1.925024 )     2.38174627
  WF centre and spread   39  (  2.799998,  0.000002,  1.925005 )     2.40360024
  WF centre and spread   40  (  2.800003, -0.000021,  1.924999 )     2.86669113
  WF centre and spread   41  (  1.400000,  4.200000, -0.000009 )     0.77669192
  WF centre and spread   42  (  1.399999,  4.200000,  0.000001 )     0.76838553
  WF centre and spread   43  (  1.400000,  4.199999, -0.000001 )     0.76837245
  WF centre and spread   44  (  1.400000,  1.400001,  0.000006 )     0.77717560
  WF centre and spread   45  (  1.399998,  1.400000, -0.000000 )     0.76837657
  WF centre and spread   46  (  1.400000,  1.400000, -0.000001 )     0.76836150
  WF centre and spread   47  (  4.200000,  1.400000,  3.849995 )     0.77669774
  WF centre and spread   48  (  4.200000,  1.400000,  3.850000 )     0.76837716
  WF centre and spread   49  (  4.200000,  1.400000,  3.850000 )     0.76837084
  WF centre and spread   50  (  4.200000,  4.199999,  3.850005 )     0.77717934
  WF centre and spread   51  (  4.200001,  4.200000,  3.850000 )     0.76836240
  WF centre and spread   52  (  4.200000,  4.200000,  3.850001 )     0.76836000
  WF centre and spread   53  (  4.200000,  1.400000, -0.000007 )     0.77669378
  WF centre and spread   54  (  4.199999,  1.400000, -0.000001 )     0.76838296
  WF centre and spread   55  (  4.200000,  1.400000,  0.000001 )     0.76837467
  WF centre and spread   56  (  4.199999,  4.200001,  0.000005 )     0.77717369
  WF centre and spread   57  (  4.199999,  4.200000, -0.000000 )     0.76837342
  WF centre and spread   58  (  4.200000,  4.200000,  0.000000 )     0.76836168
  WF centre and spread   59  (  1.400000,  4.200000,  3.849997 )     0.77669746
  WF centre and spread   60  (  1.400001,  4.200000,  3.850001 )     0.76837635
  WF centre and spread   61  (  1.400001,  4.200002,  3.849999 )     0.76836766
  WF centre and spread   62  (  1.400000,  1.399999,  3.850007 )     0.77718122
  WF centre and spread   63  (  1.400002,  1.400000,  3.849999 )     0.76836178
  WF centre and spread   64  (  1.400001,  1.399999,  3.850000 )     0.76835787
  WF centre and spread   65  (  0.000000, -0.000000,  1.925002 )     0.81475759
  WF centre and spread   66  ( -0.000000,  0.000000,  1.925000 )     0.74740772
  WF centre and spread   67  ( -0.000000, -0.000000,  1.925001 )     0.74886336
  WF centre and spread   68  (  0.000000,  0.000000,  5.775000 )     0.81475617
  WF centre and spread   69  (  0.000001,  0.000000,  5.774999 )     0.74741111
  WF centre and spread   70  (  0.000000, -0.000001,  5.775000 )     0.74886571
  WF centre and spread   71  (  2.800000,  2.800000,  5.774998 )     0.81476625
  WF centre and spread   72  (  2.800000,  2.800000,  5.774999 )     0.74741065
  WF centre and spread   73  (  2.800000,  2.799999,  5.775000 )     0.74886663
  WF centre and spread   74  (  2.800000,  2.800000,  1.924999 )     0.81476521
  WF centre and spread   75  (  2.800000,  2.800000,  1.924999 )     0.74740666
  WF centre and spread   76  (  2.800000,  2.800000,  1.925001 )     0.74886269
  Sum of centres and spreads (140.000005,139.999946,207.900000 )   102.07822015

      0     0.102E+03     0.0000000000      102.0782201525     139.36  <-- CONV
        O_D=      0.0000003 O_OD=      3.3500303 O_TOT=    102.0782202 <-- SPRD
 ------------------------------------------------------------------------------
 Cycle:      1
  WF centre and spread    1  (  0.000001, -0.000000,  0.000000 )     1.15152253
  WF centre and spread    2  ( -0.000000, -0.000000, -0.000001 )     1.12095700
  WF centre and spread    3  (  0.000000,  0.000000,  0.000001 )     1.12074286
  WF centre and spread    4  (  0.000000, -0.000001, -0.000000 )     1.13874124
  WF centre and spread    5  ( -0.000001, -0.000001, -0.000000 )     1.02172767
  WF centre and spread    6  (  0.000000,  0.000001,  3.850000 )     1.15151592
  WF centre and spread    7  (  0.000000,  0.000000,  3.850000 )     1.12095063
  WF centre and spread    8  (  0.000000, -0.000000,  3.850000 )     1.12073648
  WF centre and spread    9  (  0.000000,  0.000000,  3.850000 )     1.13873258
  WF centre and spread   10  (  0.000000,  0.000001,  3.850000 )     1.02171187
  WF centre and spread   11  (  2.799999,  2.800002,  3.849999 )     1.15154228
  WF centre and spread   12  (  2.800000,  2.800000,  3.850001 )     1.12094713
  WF centre and spread   13  (  2.800000,  2.800000,  3.850000 )     1.12073520
  WF centre and spread   14  (  2.800000,  2.800000,  3.850000 )     1.13872820
  WF centre and spread   15  (  2.800001,  2.800001,  3.850000 )     1.02169868
  WF centre and spread   16  (  2.800000,  2.799999, -0.000001 )     1.15154347
  WF centre and spread   17  (  2.800000,  2.800000, -0.000000 )     1.12095617
  WF centre and spread   18  (  2.800000,  2.800000,  0.000000 )     1.12074251
  WF centre and spread   19  (  2.800000,  2.799999, -0.000000 )     1.13873961
  WF centre and spread   20  (  2.800000,  2.799999, -0.000000 )     1.02172337
  WF centre and spread   21  ( -0.000003,  2.799994,  1.925012 )     2.99804723
  WF centre and spread   22  (  0.000006,  2.800000,  1.924973 )     2.35944859
  WF centre and spread   23  (  0.000001,  2.799999,  1.925023 )     2.37081119
  WF centre and spread   24  ( -0.000003,  2.800002,  1.925004 )     2.39207152
  WF centre and spread   25  (  0.000006,  2.799983,  1.924998 )     2.86323865
  WF centre and spread   26  (  0.000002,  2.800000,  5.775014 )     2.99805303
  WF centre and spread   27  ( -0.000005,  2.799999,  5.774995 )     2.35941572
  WF centre and spread   28  ( -0.000000,  2.800008,  5.775008 )     2.37079006
  WF centre and spread   29  (  0.000002,  2.799999,  5.774995 )     2.39209762
  WF centre and spread   30  ( -0.000007,  2.799995,  5.775000 )     2.86324533
  WF centre and spread   31  (  2.799995, -0.000002,  5.774988 )     2.99805087
  WF centre and spread   32  (  2.799996,  0.000001,  5.774998 )     2.35942881
  WF centre and spread   33  (  2.800000,  0.000003,  5.775010 )     2.37078941
  WF centre and spread   34  (  2.800004,  0.000001,  5.774995 )     2.39209832
  WF centre and spread   35  (  2.799997, -0.000006,  5.775004 )     2.86324451
  WF centre and spread   36  (  2.800005, -0.000002,  1.924988 )     2.99804254
  WF centre and spread   37  (  2.800005, -0.000000,  1.924970 )     2.35942677
  WF centre and spread   38  (  2.800000, -0.000005,  1.925024 )     2.37082875
  WF centre and spread   39  (  2.799998,  0.000002,  1.925005 )     2.39207269
  WF centre and spread   40  (  2.800004, -0.000022,  1.924999 )     2.86323089
  WF centre and spread   41  (  1.400000,  4.200000, -0.000009 )     0.77509378
  WF centre and spread   42  (  1.399999,  4.200000,  0.000001 )     0.76670304
  WF centre and spread   43  (  1.400000,  4.199999, -0.000001 )     0.76668557
  WF centre and spread   44  (  1.399999,  1.400001,  0.000006 )     0.77557027
  WF centre and spread   45  (  1.399998,  1.400001, -0.000000 )     0.76669361
  WF centre and spread   46  (  1.400000,  1.400000, -0.000001 )     0.76667378
  WF centre and spread   47  (  4.200000,  1.400000,  3.849995 )     0.77509943
  WF centre and spread   48  (  4.200000,  1.400000,  3.850000 )     0.76669499
  WF centre and spread   49  (  4.200000,  1.400000,  3.850000 )     0.76668333
  WF centre and spread   50  (  4.200000,  4.199999,  3.850005 )     0.77557356
  WF centre and spread   51  (  4.200001,  4.200000,  3.850000 )     0.76667925
  WF centre and spread   52  (  4.200000,  4.200000,  3.850001 )     0.76667185
  WF centre and spread   53  (  4.200000,  1.400000, -0.000007 )     0.77509547
  WF centre and spread   54  (  4.199999,  1.400000, -0.000001 )     0.76670082
  WF centre and spread   55  (  4.200000,  1.400000,  0.000001 )     0.76668768
  WF centre and spread   56  (  4.199999,  4.200001,  0.000005 )     0.77556834
  WF centre and spread   57  (  4.199999,  4.200000, -0.000000 )     0.76669026
  WF centre and spread   58  (  4.200000,  4.200000,  0.000000 )     0.76667374
  WF centre and spread   59  (  1.400000,  4.200000,  3.849997 )     0.77509925
  WF centre and spread   60  (  1.400001,  4.200000,  3.850001 )     0.76669426
  WF centre and spread   61  (  1.400001,  4.200002,  3.849999 )     0.76668029
  WF centre and spread   62  (  1.400000,  1.399999,  3.850008 )     0.77557533
  WF centre and spread   63  (  1.400002,  1.400000,  3.849999 )     0.76667868
  WF centre and spread   64  (  1.400001,  1.399999,  3.850000 )     0.76667017
  WF centre and spread   65  (  0.000000, -0.000000,  1.925002 )     0.81212825
  WF centre and spread   66  ( -0.000000,  0.000000,  1.925000 )     0.74666056
  WF centre and spread   67  ( -0.000000, -0.000000,  1.925001 )     0.74816505
  WF centre and spread   68  (  0.000000,  0.000000,  5.775000 )     0.81212694
  WF centre and spread   69  (  0.000001,  0.000000,  5.774999 )     0.74666359
  WF centre and spread   70  (  0.000000, -0.000001,  5.775000 )     0.74816743
  WF centre and spread   71  (  2.800000,  2.800000,  5.774999 )     0.81213654
  WF centre and spread   72  (  2.800000,  2.800000,  5.774999 )     0.74666329
  WF centre and spread   73  (  2.800000,  2.799999,  5.775000 )     0.74816843
  WF centre and spread   74  (  2.800000,  2.800000,  1.924999 )     0.81213552
  WF centre and spread   75  (  2.800000,  2.800000,  1.924999 )     0.74665940
  WF centre and spread   76  (  2.800000,  2.800000,  1.925001 )     0.74816429
  Sum of centres and spreads (140.000005,139.999945,207.900001 )   101.84660398

      1    -0.232E+00     0.6362080964      101.8466039837     139.59  <-- CONV
        O_D=      0.0000012 O_OD=      3.1184132 O_TOT=    101.8466040 <-- SPRD
 Delta: O_D=  0.8954496E-06 O_OD= -0.2316171E+00 O_TOT= -0.2316162E+00 <-- DLTA
 ------------------------------------------------------------------------------

             <<<     Delta < 1.000E-12  over  5 iterations     >>>
             <<< Wannierisation convergence criteria satisfied >>>

 Final State
  WF centre and spread    1  (  0.000001, -0.000000,  0.000001 )     1.15936130
  WF centre and spread    2  ( -0.000000, -0.000000, -0.000001 )     1.14570772
  WF centre and spread    3  (  0.000000,  0.000000,  0.000001 )     1.14560427
  WF centre and spread    4  (  0.000000, -0.000001, -0.000000 )     1.16338842
  WF centre and spread    5  ( -0.000001, -0.000001, -0.000000 )     1.03064251
  WF centre and spread    6  (  0.000000,  0.000001,  3.850000 )     1.15935268
  WF centre and spread    7  (  0.000000,  0.000000,  3.850000 )     1.14570155
  WF centre and spread    8  (  0.000000, -0.000000,  3.850001 )     1.14559842
  WF centre and spread    9  (  0.000000,  0.000000,  3.850000 )     1.16338033
  WF centre and spread   10  (  0.000001,  0.000001,  3.850000 )     1.03062443
  WF centre and spread   11  (  2.799999,  2.800002,  3.849999 )     1.15938139
  WF centre and spread   12  (  2.800000,  2.800000,  3.850000 )     1.14569801
  WF centre and spread   13  (  2.800000,  2.800000,  3.850000 )     1.14559735
  WF centre and spread   14  (  2.800000,  2.800000,  3.850000 )     1.16337617
  WF centre and spread   15  (  2.800001,  2.800001,  3.850000 )     1.03061043
  WF centre and spread   16  (  2.800000,  2.799999, -0.000001 )     1.15938436
  WF centre and spread   17  (  2.800000,  2.800000, -0.000001 )     1.14570691
  WF centre and spread   18  (  2.800000,  2.800000,  0.000000 )     1.14560376
  WF centre and spread   19  (  2.800000,  2.799999, -0.000000 )     1.16338670
  WF centre and spread   20  (  2.800000,  2.799999, -0.000000 )     1.03063739
  WF centre and spread   21  ( -0.000003,  2.799993,  1.925013 )     2.97716353
  WF centre and spread   22  (  0.000006,  2.800000,  1.924973 )     2.32060007
  WF centre and spread   23  (  0.000001,  2.799999,  1.925023 )     2.33170702
  WF centre and spread   24  ( -0.000004,  2.800002,  1.925004 )     2.35276064
  WF centre and spread   25  (  0.000006,  2.799982,  1.924998 )     2.84886306
  WF centre and spread   26  (  0.000002,  2.800000,  5.775014 )     2.97717106
  WF centre and spread   27  ( -0.000006,  2.800000,  5.774995 )     2.32056921
  WF centre and spread   28  ( -0.000000,  2.800008,  5.775008 )     2.33168812
  WF centre and spread   29  (  0.000002,  2.799999,  5.774995 )     2.35278605
  WF centre and spread   30  ( -0.000008,  2.799994,  5.775000 )     2.84887349
  WF centre and spread   31  (  2.799995, -0.000002,  5.774987 )     2.97716996
  WF centre and spread   32  (  2.799996,  0.000001,  5.774998 )     2.32058275
  WF centre and spread   33  (  2.800000,  0.000003,  5.775010 )     2.33168711
  WF centre and spread   34  (  2.800005,  0.000001,  5.774995 )     2.35278701
  WF centre and spread   35  (  2.799996, -0.000006,  5.775003 )     2.84887288
  WF centre and spread   36  (  2.800006, -0.000002,  1.924988 )     2.97716080
  WF centre and spread   37  (  2.800005, -0.000000,  1.924970 )     2.32057966
  WF centre and spread   38  (  2.800000, -0.000005,  1.925024 )     2.33172430
  WF centre and spread   39  (  2.799997,  0.000002,  1.925005 )     2.35276129
  WF centre and spread   40  (  2.800004, -0.000022,  1.924999 )     2.84885779
  WF centre and spread   41  (  1.400000,  4.200000, -0.000010 )     0.76990544
  WF centre and spread   42  (  1.399999,  4.200000,  0.000000 )     0.75769128
  WF centre and spread   43  (  1.400000,  4.199999, -0.000000 )     0.75766517
  WF centre and spread   44  (  1.399999,  1.400001,  0.000007 )     0.77040922
  WF centre and spread   45  (  1.399999,  1.400001, -0.000000 )     0.75768376
  WF centre and spread   46  (  1.400001,  1.400000, -0.000001 )     0.75765559
  WF centre and spread   47  (  4.200000,  1.400001,  3.849994 )     0.76990999
  WF centre and spread   48  (  4.200000,  1.400000,  3.850000 )     0.75768369
  WF centre and spread   49  (  4.200000,  1.400000,  3.850000 )     0.75766272
  WF centre and spread   50  (  4.200000,  4.199999,  3.850006 )     0.77041090
  WF centre and spread   51  (  4.200001,  4.200000,  3.850000 )     0.75767118
  WF centre and spread   52  (  4.200000,  4.199999,  3.850001 )     0.75765397
  WF centre and spread   53  (  4.200000,  1.400000, -0.000008 )     0.76990714
  WF centre and spread   54  (  4.199999,  1.400000, -0.000001 )     0.75768876
  WF centre and spread   55  (  4.200000,  1.400000,  0.000001 )     0.75766724
  WF centre and spread   56  (  4.199999,  4.200001,  0.000006 )     0.77040765
  WF centre and spread   57  (  4.199999,  4.200000,  0.000000 )     0.75768120
  WF centre and spread   58  (  4.200000,  4.200000,  0.000000 )     0.75765563
  WF centre and spread   59  (  1.400000,  4.200000,  3.849996 )     0.76990991
  WF centre and spread   60  (  1.400001,  4.200000,  3.850001 )     0.75768324
  WF centre and spread   61  (  1.400001,  4.200002,  3.849999 )     0.75765999
  WF centre and spread   62  (  1.400000,  1.400000,  3.850008 )     0.77041237
  WF centre and spread   63  (  1.400002,  1.400000,  3.849999 )     0.75767038
  WF centre and spread   64  (  1.400000,  1.399999,  3.850000 )     0.75765211
  WF centre and spread   65  (  0.000000, -0.000000,  1.925001 )     0.79248439
  WF centre and spread   66  ( -0.000000,  0.000000,  1.925000 )     0.74261515
  WF centre and spread   67  ( -0.000000, -0.000000,  1.925001 )     0.74401375
  WF centre and spread   68  (  0.000000,  0.000000,  5.775000 )     0.79248320
  WF centre and spread   69  (  0.000001,  0.000000,  5.774999 )     0.74261801
  WF centre and spread   70  (  0.000000, -0.000001,  5.775000 )     0.74401551
  WF centre and spread   71  (  2.800000,  2.800000,  5.774999 )     0.79249135
  WF centre and spread   72  (  2.800001,  2.800000,  5.774999 )     0.74261833
  WF centre and spread   73  (  2.800000,  2.799999,  5.775000 )     0.74401701
  WF centre and spread   74  (  2.800000,  2.800000,  1.924999 )     0.79249045
  WF centre and spread   75  (  2.800000,  2.800000,  1.925000 )     0.74261345
  WF centre and spread   76  (  2.800000,  2.800000,  1.925001 )     0.74401230
  Sum of centres and spreads (140.000005,139.999944,207.900000 )   101.30358132

         Spreads (Ang^2)       Omega I      =    98.728189588
        ================       Omega D      =     0.000000107
                               Omega OD     =     2.575391628
    Final Spread (Ang^2)       Omega Total  =   101.303581323
 ------------------------------------------------------------------------------

 Writing checkpoint file smo.chk... done

  
  Omega Invariant:   1-s^2 =    98.728189588 (Ang^2)
                   -2log s =   101.661318384 (Ang^2)
                    acos^2 =   100.647727126 (Ang^2)
 *---------------------------------------------------------------------------*
 |                               PLOTTING                                    |
 *---------------------------------------------------------------------------*


 Calculating interpolated band-structure

 Time to calculate interpolated band structure      53.879 (sec)


 *===========================================================================*
 |                             TIMING INFORMATION                            |
 *===========================================================================*
 |    Tag                                                Ncalls      Time (s)|
 |---------------------------------------------------------------------------|
 |kmesh: get                                        :         1         0.064|
 |overlap: read                                     :         1         7.318|
 |dis: main                                         :         1       142.393|
 |wann: main                                        :         1        25.799|
 |plot: main                                        :         1        59.102|
 *---------------------------------------------------------------------------*
