
     Program PWSCF v.7.4 starts on  5Jun2025 at 15:33:10 
        Git branch: develop
        Last git commit: 621a13ae07f0aef1eb4ac4d6dc5b2414247e738f
        Last git commit date: Thu Dec 5 08:24:25 2024 +0000
        Last git commit subject: Merge branch 'wavefunction_module' into 'develop'

     This program is part of the open-source Quantum ESPRESSO suite
     for quantum simulation of materials; please cite
         "P. Giannozzi et al., J. Phys.:Condens. Matter 21 395502 (2009);
         "P. Giannozzi et al., J. Phys.:Condens. Matter 29 465901 (2017);
         "P. Giannozzi et al., J. Chem. Phys. 152 154105 (2020);
          URL http://www.quantum-espresso.org", 
     in publications or presentations arising from this work. More details at
     http://www.quantum-espresso.org/quote

     Parallel version (MPI), running on    64 processors

     MPI processes distributed on     1 nodes
     206097 MiB available memory on the printing compute node when the environment starts

     Waiting for input...
     Reading input from standard input

     Current dimensions of program PWSCF are:
     Max number of different atomic species (ntypx) = 10
     Max number of k-points (npk) =  40000
     Max angular momentum in pseudopotentials (lmaxx) =  4
     file O.pbesol-n-kjpaw_psl.0.1.UPF: wavefunction(s)  2P renormalized

     Atomic positions and unit cell read from directory:
     ./out/smo.save/

     Found identity + (  0.0000  0.0000 -0.5000) symmetry
     This is a supercell, fractional translations are disabled
     Message from routine setup:
     using ibrav=0 with symmetry is DISCOURAGED, use correct ibrav instead

     K-points division:     npool     =      64
     Subspace diagonalization in iterative solution of the eigenvalue problem:
     a serial algorithm will be used


     G-vector sticks info
     --------------------
     sticks:   dense  smooth     PW     G-vecs:    dense   smooth      PW
     Sum        5385    2705    749               419189   148327   21755

     Using Slab Decomposition



     bravais-lattice index     =            0
     lattice parameter (alat)  =      10.5994  a.u.
     unit-cell volume          =    1688.5382 (a.u.)^3
     number of atoms/cell      =           20
     number of atomic types    =            3
     number of electrons       =       168.00
     number of Kohn-Sham states=          101
     kinetic-energy cutoff     =      75.0000  Ry
     charge density cutoff     =     600.0000  Ry
     Exchange-correlation= SLA  PW   PSX  PSC
                           (   1   4  10   8   0   0   0)

     celldm(1)=  10.599398  celldm(2)=   0.000000  celldm(3)=   0.000000
     celldm(4)=   0.000000  celldm(5)=   0.000000  celldm(6)=   0.000000

     crystal axes: (cart. coord. in units of alat)
               a(1) = (   1.000000   0.000000   0.000000 )  
               a(2) = (   0.000000   1.002817   0.000000 )  
               a(3) = (   0.000000   0.000000   1.413988 )  

     reciprocal axes: (cart. coord. in units 2 pi/alat)
               b(1) = (  1.000000  0.000000  0.000000 )  
               b(2) = (  0.000000  0.997191  0.000000 )  
               b(3) = (  0.000000  0.000000  0.707220 )  


     PseudoPot. # 1 for Mo read from file:
     ../pseudo/Mo_ONCV_PBEsol-1.0.upf
     MD5 check sum: 5193ba6a20874d27c2ef80314d1b3445
     Pseudo is Norm-conserving, Zval = 14.0
     Generated using ONCVPSP code by D. R. Hamann
     Using radial grid of 1508 points,  6 beta functions with: 
                l(1) =   0
                l(2) =   0
                l(3) =   1
                l(4) =   1
                l(5) =   2
                l(6) =   2

     PseudoPot. # 2 for O  read from file:
     ../pseudo/O.pbesol-n-kjpaw_psl.0.1.UPF
     MD5 check sum: 81d73d1479e654e5638b0319f0d6c2c7
     Pseudo is Projector augmented-wave + core cor, Zval =  6.0
     Generated using "atomic" code by A. Dal Corso  v.6.0 svn rev. 13079
     Shape of augmentation charge: BESSEL
     Using radial grid of 1095 points,  4 beta functions with: 
                l(1) =   0
                l(2) =   0
                l(3) =   1
                l(4) =   1
     Q(r) pseudized with 0 coefficients 


     PseudoPot. # 3 for Sr read from file:
     ../pseudo/sr_pbesol_v1.uspp.F.UPF
     MD5 check sum: 635bff1625df5273dba4129a01ed8c82
     Pseudo is Ultrasoft + core correction, Zval = 10.0
     Generated by new atomic code, or converted to UPF format
     Using radial grid of  883 points,  6 beta functions with: 
                l(1) =   0
                l(2) =   0
                l(3) =   1
                l(4) =   1
                l(5) =   2
                l(6) =   2
     Q(r) pseudized with  6 coefficients,  rinner =    1.400   1.400   1.400
                                                       1.400   1.400

     atomic species   valence    mass     pseudopotential
     Mo               14.00    95.96000     Mo( 1.00)
     O                 6.00    15.99940     O ( 1.00)
     Sr               10.00    87.62000     Sr( 1.00)

      8 Sym. Ops., with inversion, found


                                    s                        frac. trans.

      isym =  1     identity                                     

 cryst.   s( 1) = (     1          0          0      )
                  (     0          1          0      )
                  (     0          0          1      )

 cart.    s( 1) = (  1.0000000  0.0000000  0.0000000 )
                  (  0.0000000  1.0000000  0.0000000 )
                  (  0.0000000  0.0000000  1.0000000 )


      isym =  2     180 deg rotation - cart. axis [0,0,1]        

 cryst.   s( 2) = (    -1          0          0      )
                  (     0         -1          0      )
                  (     0          0          1      )

 cart.    s( 2) = ( -1.0000000  0.0000000  0.0000000 )
                  (  0.0000000 -1.0000000  0.0000000 )
                  (  0.0000000  0.0000000  1.0000000 )


      isym =  3     180 deg rotation - cart. axis [0,1,0]        

 cryst.   s( 3) = (    -1          0          0      )
                  (     0          1          0      )
                  (     0          0         -1      )

 cart.    s( 3) = ( -1.0000000  0.0000000  0.0000000 )
                  (  0.0000000  1.0000000  0.0000000 )
                  (  0.0000000  0.0000000 -1.0000000 )


      isym =  4     180 deg rotation - cart. axis [1,0,0]        

 cryst.   s( 4) = (     1          0          0      )
                  (     0         -1          0      )
                  (     0          0         -1      )

 cart.    s( 4) = (  1.0000000  0.0000000  0.0000000 )
                  (  0.0000000 -1.0000000  0.0000000 )
                  (  0.0000000  0.0000000 -1.0000000 )


      isym =  5     inversion                                    

 cryst.   s( 5) = (    -1          0          0      )
                  (     0         -1          0      )
                  (     0          0         -1      )

 cart.    s( 5) = ( -1.0000000  0.0000000  0.0000000 )
                  (  0.0000000 -1.0000000  0.0000000 )
                  (  0.0000000  0.0000000 -1.0000000 )


      isym =  6     inv. 180 deg rotation - cart. axis [0,0,1]   

 cryst.   s( 6) = (     1          0          0      )
                  (     0          1          0      )
                  (     0          0         -1      )

 cart.    s( 6) = (  1.0000000  0.0000000  0.0000000 )
                  (  0.0000000  1.0000000  0.0000000 )
                  (  0.0000000  0.0000000 -1.0000000 )


      isym =  7     inv. 180 deg rotation - cart. axis [0,1,0]   

 cryst.   s( 7) = (     1          0          0      )
                  (     0         -1          0      )
                  (     0          0          1      )

 cart.    s( 7) = (  1.0000000  0.0000000  0.0000000 )
                  (  0.0000000 -1.0000000  0.0000000 )
                  (  0.0000000  0.0000000  1.0000000 )


      isym =  8     inv. 180 deg rotation - cart. axis [1,0,0]   

 cryst.   s( 8) = (    -1          0          0      )
                  (     0          1          0      )
                  (     0          0          1      )

 cart.    s( 8) = ( -1.0000000  0.0000000  0.0000000 )
                  (  0.0000000  1.0000000  0.0000000 )
                  (  0.0000000  0.0000000  1.0000000 )


   Cartesian axes

     site n.     atom                  positions (alat units)
         1        Sr     tau(   1) = (   0.0000000   0.5014085   0.3534969  )
         2        Sr     tau(   2) = (   0.0000000   0.5014085   1.0604907  )
         3        Sr     tau(   3) = (   0.5000000   0.0000000   1.0604907  )
         4        Sr     tau(   4) = (   0.5000000   0.0000000   0.3534969  )
         5        Mo     tau(   5) = (   0.0000000   0.0000000   0.0000000  )
         6        Mo     tau(   6) = (   0.0000000   0.0000000   0.7069938  )
         7        Mo     tau(   7) = (   0.5000000   0.5014085   0.7069938  )
         8        Mo     tau(   8) = (   0.5000000   0.5014085   0.0000000  )
         9        O      tau(   9) = (   0.2500000   0.7521127   0.0000000  )
        10        O      tau(  10) = (   0.2500000   0.2507042   0.0000000  )
        11        O      tau(  11) = (   0.7500000   0.2507042   0.7069938  )
        12        O      tau(  12) = (   0.7500000   0.7521127   0.7069938  )
        13        O      tau(  13) = (   0.7500000   0.2507042   0.0000000  )
        14        O      tau(  14) = (   0.7500000   0.7521127   0.0000000  )
        15        O      tau(  15) = (   0.2500000   0.7521127   0.7069938  )
        16        O      tau(  16) = (   0.2500000   0.2507042   0.7069938  )
        17        O      tau(  17) = (   0.0000000   0.0000000   0.3534969  )
        18        O      tau(  18) = (   0.0000000   0.0000000   1.0604907  )
        19        O      tau(  19) = (   0.5000000   0.5014085   1.0604907  )
        20        O      tau(  20) = (   0.5000000   0.5014085   0.3534969  )

   Crystallographic axes

     site n.     atom                  positions (cryst. coord.)
         1        Sr     tau(   1) = (  0.0000000  0.5000000  0.2500000  )
         2        Sr     tau(   2) = (  0.0000000  0.5000000  0.7500000  )
         3        Sr     tau(   3) = (  0.5000000  0.0000000  0.7500000  )
         4        Sr     tau(   4) = (  0.5000000  0.0000000  0.2500000  )
         5        Mo     tau(   5) = (  0.0000000  0.0000000  0.0000000  )
         6        Mo     tau(   6) = (  0.0000000  0.0000000  0.5000000  )
         7        Mo     tau(   7) = (  0.5000000  0.5000000  0.5000000  )
         8        Mo     tau(   8) = (  0.5000000  0.5000000  0.0000000  )
         9        O      tau(   9) = (  0.2500000  0.7500000  0.0000000  )
        10        O      tau(  10) = (  0.2500000  0.2500000  0.0000000  )
        11        O      tau(  11) = (  0.7500000  0.2500000  0.5000000  )
        12        O      tau(  12) = (  0.7500000  0.7500000  0.5000000  )
        13        O      tau(  13) = (  0.7500000  0.2500000  0.0000000  )
        14        O      tau(  14) = (  0.7500000  0.7500000  0.0000000  )
        15        O      tau(  15) = (  0.2500000  0.7500000  0.5000000  )
        16        O      tau(  16) = (  0.2500000  0.2500000  0.5000000  )
        17        O      tau(  17) = (  0.0000000  0.0000000  0.2500000  )
        18        O      tau(  18) = (  0.0000000  0.0000000  0.7500000  )
        19        O      tau(  19) = (  0.5000000  0.5000000  0.7500000  )
        20        O      tau(  20) = (  0.5000000  0.5000000  0.2500000  )

     number of k points=    71  Marzari-Vanderbilt smearing, width (Ry)=  0.0147
                       cart. coord. in units 2pi/alat
        k(    1) = (   0.0000000   0.0000000   0.0000000), wk =   0.0281690
        k(    2) = (   0.0000000   0.0498595   0.0000000), wk =   0.0281690
        k(    3) = (   0.0000000   0.0997191   0.0000000), wk =   0.0281690
        k(    4) = (   0.0000000   0.1495786   0.0000000), wk =   0.0281690
        k(    5) = (   0.0000000   0.1994382   0.0000000), wk =   0.0281690
        k(    6) = (   0.0000000   0.2492977   0.0000000), wk =   0.0281690
        k(    7) = (   0.0000000   0.2991573   0.0000000), wk =   0.0281690
        k(    8) = (   0.0000000   0.3490168   0.0000000), wk =   0.0281690
        k(    9) = (   0.0000000   0.3988764   0.0000000), wk =   0.0281690
        k(   10) = (   0.0000000   0.4487359   0.0000000), wk =   0.0281690
        k(   11) = (   0.0000000   0.4985955   0.0000000), wk =   0.0281690
        k(   12) = (   0.0500000   0.4985955   0.0000000), wk =   0.0281690
        k(   13) = (   0.1000000   0.4985955   0.0000000), wk =   0.0281690
        k(   14) = (   0.1500000   0.4985955   0.0000000), wk =   0.0281690
        k(   15) = (   0.2000000   0.4985955   0.0000000), wk =   0.0281690
        k(   16) = (   0.2500000   0.4985955   0.0000000), wk =   0.0281690
        k(   17) = (   0.3000000   0.4985955   0.0000000), wk =   0.0281690
        k(   18) = (   0.3500000   0.4985955   0.0000000), wk =   0.0281690
        k(   19) = (   0.4000000   0.4985955   0.0000000), wk =   0.0281690
        k(   20) = (   0.4500000   0.4985955   0.0000000), wk =   0.0281690
        k(   21) = (   0.5000000   0.4985955   0.0000000), wk =   0.0281690
        k(   22) = (   0.4500000   0.4487359   0.0000000), wk =   0.0281690
        k(   23) = (   0.4000000   0.3988764   0.0000000), wk =   0.0281690
        k(   24) = (   0.3500000   0.3490168   0.0000000), wk =   0.0281690
        k(   25) = (   0.3000000   0.2991573   0.0000000), wk =   0.0281690
        k(   26) = (   0.2500000   0.2492977   0.0000000), wk =   0.0281690
        k(   27) = (   0.2000000   0.1994382   0.0000000), wk =   0.0281690
        k(   28) = (   0.1500000   0.1495786   0.0000000), wk =   0.0281690
        k(   29) = (   0.1000000   0.0997191   0.0000000), wk =   0.0281690
        k(   30) = (   0.0500000   0.0498595   0.0000000), wk =   0.0281690
        k(   31) = (   0.0000000   0.0000000   0.0000000), wk =   0.0281690
        k(   32) = (   0.0000000   0.0000000   0.0353610), wk =   0.0281690
        k(   33) = (   0.0000000   0.0000000   0.0707220), wk =   0.0281690
        k(   34) = (   0.0000000   0.0000000   0.1060830), wk =   0.0281690
        k(   35) = (   0.0000000   0.0000000   0.1414440), wk =   0.0281690
        k(   36) = (   0.0000000   0.0000000   0.1768049), wk =   0.0281690
        k(   37) = (   0.0000000   0.0000000   0.2121659), wk =   0.0281690
        k(   38) = (   0.0000000   0.0000000   0.2475269), wk =   0.0281690
        k(   39) = (   0.0000000   0.0000000   0.2828879), wk =   0.0281690
        k(   40) = (   0.0000000   0.0000000   0.3182489), wk =   0.0281690
        k(   41) = (   0.0000000   0.0000000   0.3536099), wk =   0.0281690
        k(   42) = (   0.0000000   0.0498595   0.3536099), wk =   0.0281690
        k(   43) = (   0.0000000   0.0997191   0.3536099), wk =   0.0281690
        k(   44) = (   0.0000000   0.1495786   0.3536099), wk =   0.0281690
        k(   45) = (   0.0000000   0.1994382   0.3536099), wk =   0.0281690
        k(   46) = (   0.0000000   0.2492977   0.3536099), wk =   0.0281690
        k(   47) = (   0.0000000   0.2991573   0.3536099), wk =   0.0281690
        k(   48) = (   0.0000000   0.3490168   0.3536099), wk =   0.0281690
        k(   49) = (   0.0000000   0.3988764   0.3536099), wk =   0.0281690
        k(   50) = (   0.0000000   0.4487359   0.3536099), wk =   0.0281690
        k(   51) = (   0.0000000   0.4985955   0.3536099), wk =   0.0281690
        k(   52) = (   0.0500000   0.4985955   0.3536099), wk =   0.0281690
        k(   53) = (   0.1000000   0.4985955   0.3536099), wk =   0.0281690
        k(   54) = (   0.1500000   0.4985955   0.3536099), wk =   0.0281690
        k(   55) = (   0.2000000   0.4985955   0.3536099), wk =   0.0281690
        k(   56) = (   0.2500000   0.4985955   0.3536099), wk =   0.0281690
        k(   57) = (   0.3000000   0.4985955   0.3536099), wk =   0.0281690
        k(   58) = (   0.3500000   0.4985955   0.3536099), wk =   0.0281690
        k(   59) = (   0.4000000   0.4985955   0.3536099), wk =   0.0281690
        k(   60) = (   0.4500000   0.4985955   0.3536099), wk =   0.0281690
        k(   61) = (   0.5000000   0.4985955   0.3536099), wk =   0.0281690
        k(   62) = (   0.4500000   0.4487359   0.3536099), wk =   0.0281690
        k(   63) = (   0.4000000   0.3988764   0.3536099), wk =   0.0281690
        k(   64) = (   0.3500000   0.3490168   0.3536099), wk =   0.0281690
        k(   65) = (   0.3000000   0.2991573   0.3536099), wk =   0.0281690
        k(   66) = (   0.2500000   0.2492977   0.3536099), wk =   0.0281690
        k(   67) = (   0.2000000   0.1994382   0.3536099), wk =   0.0281690
        k(   68) = (   0.1500000   0.1495786   0.3536099), wk =   0.0281690
        k(   69) = (   0.1000000   0.0997191   0.3536099), wk =   0.0281690
        k(   70) = (   0.0500000   0.0498595   0.3536099), wk =   0.0281690
        k(   71) = (   0.0000000   0.0000000   0.3536099), wk =   0.0281690

                       cryst. coord.
        k(    1) = (   0.0000000   0.0000000   0.0000000), wk =   0.0281690
        k(    2) = (   0.0000000   0.0500000   0.0000000), wk =   0.0281690
        k(    3) = (   0.0000000   0.1000000   0.0000000), wk =   0.0281690
        k(    4) = (   0.0000000   0.1500000   0.0000000), wk =   0.0281690
        k(    5) = (   0.0000000   0.2000000   0.0000000), wk =   0.0281690
        k(    6) = (   0.0000000   0.2500000   0.0000000), wk =   0.0281690
        k(    7) = (   0.0000000   0.3000000   0.0000000), wk =   0.0281690
        k(    8) = (   0.0000000   0.3500000   0.0000000), wk =   0.0281690
        k(    9) = (   0.0000000   0.4000000   0.0000000), wk =   0.0281690
        k(   10) = (   0.0000000   0.4500000   0.0000000), wk =   0.0281690
        k(   11) = (   0.0000000   0.5000000   0.0000000), wk =   0.0281690
        k(   12) = (   0.0500000   0.5000000   0.0000000), wk =   0.0281690
        k(   13) = (   0.1000000   0.5000000   0.0000000), wk =   0.0281690
        k(   14) = (   0.1500000   0.5000000   0.0000000), wk =   0.0281690
        k(   15) = (   0.2000000   0.5000000   0.0000000), wk =   0.0281690
        k(   16) = (   0.2500000   0.5000000   0.0000000), wk =   0.0281690
        k(   17) = (   0.3000000   0.5000000   0.0000000), wk =   0.0281690
        k(   18) = (   0.3500000   0.5000000   0.0000000), wk =   0.0281690
        k(   19) = (   0.4000000   0.5000000   0.0000000), wk =   0.0281690
        k(   20) = (   0.4500000   0.5000000   0.0000000), wk =   0.0281690
        k(   21) = (   0.5000000   0.5000000   0.0000000), wk =   0.0281690
        k(   22) = (   0.4500000   0.4500000   0.0000000), wk =   0.0281690
        k(   23) = (   0.4000000   0.4000000   0.0000000), wk =   0.0281690
        k(   24) = (   0.3500000   0.3500000   0.0000000), wk =   0.0281690
        k(   25) = (   0.3000000   0.3000000   0.0000000), wk =   0.0281690
        k(   26) = (   0.2500000   0.2500000   0.0000000), wk =   0.0281690
        k(   27) = (   0.2000000   0.2000000   0.0000000), wk =   0.0281690
        k(   28) = (   0.1500000   0.1500000   0.0000000), wk =   0.0281690
        k(   29) = (   0.1000000   0.1000000   0.0000000), wk =   0.0281690
        k(   30) = (   0.0500000   0.0500000   0.0000000), wk =   0.0281690
        k(   31) = (   0.0000000   0.0000000   0.0000000), wk =   0.0281690
        k(   32) = (   0.0000000   0.0000000   0.0500000), wk =   0.0281690
        k(   33) = (   0.0000000   0.0000000   0.1000000), wk =   0.0281690
        k(   34) = (   0.0000000   0.0000000   0.1500000), wk =   0.0281690
        k(   35) = (   0.0000000   0.0000000   0.2000000), wk =   0.0281690
        k(   36) = (   0.0000000   0.0000000   0.2500000), wk =   0.0281690
        k(   37) = (   0.0000000   0.0000000   0.3000000), wk =   0.0281690
        k(   38) = (   0.0000000   0.0000000   0.3500000), wk =   0.0281690
        k(   39) = (   0.0000000   0.0000000   0.4000000), wk =   0.0281690
        k(   40) = (   0.0000000   0.0000000   0.4500000), wk =   0.0281690
        k(   41) = (   0.0000000   0.0000000   0.5000000), wk =   0.0281690
        k(   42) = (   0.0000000   0.0500000   0.5000000), wk =   0.0281690
        k(   43) = (   0.0000000   0.1000000   0.5000000), wk =   0.0281690
        k(   44) = (   0.0000000   0.1500000   0.5000000), wk =   0.0281690
        k(   45) = (   0.0000000   0.2000000   0.5000000), wk =   0.0281690
        k(   46) = (   0.0000000   0.2500000   0.5000000), wk =   0.0281690
        k(   47) = (   0.0000000   0.3000000   0.5000000), wk =   0.0281690
        k(   48) = (   0.0000000   0.3500000   0.5000000), wk =   0.0281690
        k(   49) = (   0.0000000   0.4000000   0.5000000), wk =   0.0281690
        k(   50) = (   0.0000000   0.4500000   0.5000000), wk =   0.0281690
        k(   51) = (   0.0000000   0.5000000   0.5000000), wk =   0.0281690
        k(   52) = (   0.0500000   0.5000000   0.5000000), wk =   0.0281690
        k(   53) = (   0.1000000   0.5000000   0.5000000), wk =   0.0281690
        k(   54) = (   0.1500000   0.5000000   0.5000000), wk =   0.0281690
        k(   55) = (   0.2000000   0.5000000   0.5000000), wk =   0.0281690
        k(   56) = (   0.2500000   0.5000000   0.5000000), wk =   0.0281690
        k(   57) = (   0.3000000   0.5000000   0.5000000), wk =   0.0281690
        k(   58) = (   0.3500000   0.5000000   0.5000000), wk =   0.0281690
        k(   59) = (   0.4000000   0.5000000   0.5000000), wk =   0.0281690
        k(   60) = (   0.4500000   0.5000000   0.5000000), wk =   0.0281690
        k(   61) = (   0.5000000   0.5000000   0.5000000), wk =   0.0281690
        k(   62) = (   0.4500000   0.4500000   0.5000000), wk =   0.0281690
        k(   63) = (   0.4000000   0.4000000   0.5000000), wk =   0.0281690
        k(   64) = (   0.3500000   0.3500000   0.5000000), wk =   0.0281690
        k(   65) = (   0.3000000   0.3000000   0.5000000), wk =   0.0281690
        k(   66) = (   0.2500000   0.2500000   0.5000000), wk =   0.0281690
        k(   67) = (   0.2000000   0.2000000   0.5000000), wk =   0.0281690
        k(   68) = (   0.1500000   0.1500000   0.5000000), wk =   0.0281690
        k(   69) = (   0.1000000   0.1000000   0.5000000), wk =   0.0281690
        k(   70) = (   0.0500000   0.0500000   0.5000000), wk =   0.0281690
        k(   71) = (   0.0000000   0.0000000   0.5000000), wk =   0.0281690

     Dense  grid:   419189 G-vectors     FFT dimensions: (  90,  90, 120)

     Smooth grid:   148327 G-vectors     FFT dimensions: (  60,  60,  90)

     Dynamical RAM for                 wfc:      28.54 MB

     Dynamical RAM for     wfc (w. buffer):      28.54 MB

     Dynamical RAM for           str. fact:      19.19 MB

     Dynamical RAM for           local pot:       0.00 MB

     Dynamical RAM for          nlocal pot:      67.82 MB

     Dynamical RAM for                qrad:       5.90 MB

     Dynamical RAM for          rho,v,vnew:      41.44 MB

     Dynamical RAM for           G-vectors:      25.12 MB

     Dynamical RAM for          h,s,v(r/c):       1.87 MB

     Dynamical RAM for          <psi|beta>:       0.37 MB

     Dynamical RAM for                 psi:      57.08 MB

     Dynamical RAM for                hpsi:      57.08 MB

     Dynamical RAM for                spsi:      57.08 MB

     Dynamical RAM for      wfcinit/wfcrot:      57.32 MB

     Dynamical RAM for           addusdens:      26.08 MB

     Estimated static dynamical RAM per process >     250.67 MB

     Estimated max dynamical RAM per process >     424.16 MB

     Estimated total dynamical RAM >      26.51 GB

     The potential is recalculated from file :
     ./out/smo.save/charge-density


     negative rho (up, down):  2.650E-01 0.000E+00
     Starting wfcs are  140 randomized atomic wfcs
     Checking if some PAW data can be deallocated... 
       PAW data deallocated on   28 nodes for type:  2

     Band Structure Calculation
     Davidson diagonalization with overlap

     Computing kpt #:     1  of     2 on this pool
     total cpu time spent up to now is      315.6 secs

     Computing kpt #:     2  of     2 on this pool
     c_bands:  1 eigenvalues not converged
     total cpu time spent up to now is      425.1 secs

     ethr =  2.38E-13,  avg # of iterations =115.5

     total cpu time spent up to now is      435.0 secs

     End of band structure calculation

          k = 0.0000 0.0000 0.0000 ( 18565 PWs)   bands (ev):

   -48.6980 -48.6966 -48.6945 -48.6892 -23.0324 -23.0127 -23.0047 -23.0015
   -22.9998 -22.9963 -22.9353 -22.9267 -22.9235 -22.9208 -22.9190 -22.9160
   -21.9776 -21.9449 -21.9430 -21.9276  -6.8967  -6.6907  -6.2578  -6.0350
    -6.0179  -5.9842  -5.6840  -5.6774  -5.2945  -5.2650  -5.2553  -5.2488
    -4.2328  -4.2324  -4.2321  -3.9907  -3.9889  -3.9858  -3.9551  -3.9527
    -3.8982  -3.6407  -3.6395  -3.5200   5.3944   5.4041   5.4210   5.4921
     5.6179   5.6720   5.8547   6.4537   6.4656   6.4815   7.4229   7.4317
     7.8364   7.8399   8.0000   8.0113   8.0302   8.0411   8.0413   8.1062
     8.6278   8.9617   8.9651   9.0086   9.3558   9.3673   9.3700   9.7327
     9.7536  10.0224  10.0245  10.0339  10.4486  10.5200  10.5233  10.5269
    11.8869  11.8948  11.8950  12.0989  14.6244  14.6262  14.6324  14.6395
    15.4063  15.6831  15.6952  15.6969  15.7075  15.7094  15.7144  15.9493
    15.9595  16.1851  16.8662  17.3194  17.3227

          k = 0.0000 0.0499 0.0000 ( 18575 PWs)   bands (ev):

   -48.6980 -48.6966 -48.6945 -48.6892 -23.0322 -23.0127 -23.0044 -23.0010
   -22.9993 -22.9958 -22.9353 -22.9268 -22.9242 -22.9213 -22.9196 -22.9165
   -21.9772 -21.9449 -21.9430 -21.9278  -6.8890  -6.6897  -6.2666  -6.0338
    -6.0156  -5.9802  -5.6807  -5.6792  -5.3002  -5.2728  -5.2720  -5.2540
    -4.2311  -4.2224  -4.2203  -3.9893  -3.9854  -3.9833  -3.9569  -3.9458
    -3.8989  -3.6439  -3.6404  -3.5227   5.3991   5.4209   5.4377   5.4918
     5.6343   5.6866   5.8676   6.4478   6.4690   6.4889   7.4279   7.4392
     7.7129   7.8032   7.9824   8.0082   8.0109   8.0331   8.0384   8.2278
     8.6702   8.9528   8.9659   9.0119   9.3206   9.3458   9.3678   9.6920
     9.7300   9.9838  10.0088  10.0117  10.4391  10.5119  10.5122  10.5156
    11.9156  11.9161  11.9419  12.1400  14.6197  14.6227  14.6263  14.6268
    15.3877  15.6849  15.6986  15.6988  15.7107  15.7283  15.7407  15.9705
    15.9797  16.2148  16.8646  17.3395  17.3516

          k = 0.0000 0.0997 0.0000 ( 18541 PWs)   bands (ev):

   -48.6980 -48.6966 -48.6945 -48.6892 -23.0317 -23.0129 -23.0033 -22.9996
   -22.9980 -22.9944 -22.9352 -22.9269 -22.9261 -22.9228 -22.9211 -22.9180
   -21.9760 -21.9448 -21.9431 -21.9283  -6.8660  -6.6868  -6.2913  -6.0296
    -6.0088  -5.9682  -5.6847  -5.6727  -5.3199  -5.3165  -5.2943  -5.2692
    -4.2261  -4.1943  -4.1868  -3.9851  -3.9841  -3.9669  -3.9620  -3.9262
    -3.9008  -3.6531  -3.6428  -3.5308   5.4117   5.4708   5.4875   5.4908
     5.6799   5.7338   5.9073   6.4311   6.4791   6.5115   7.4426   7.4618
     7.5125   7.7113   7.9313   7.9543   7.9967   8.0073   8.0304   8.4229
     8.7788   8.9275   8.9682   9.0216   9.2188   9.2768   9.3693   9.5769
     9.6645   9.8789   9.9388   9.9752  10.4109  10.4691  10.4786  10.5024
    11.9762  11.9997  12.0704  12.2560  14.5733  14.5824  14.6288  14.6318
    15.3324  15.6196  15.6540  15.6676  15.7548  15.8601  15.8687  16.0333
    16.0400  16.3030  16.8591  17.3890  17.4290

          k = 0.0000 0.1496 0.0000 ( 18551 PWs)   bands (ev):

   -48.6979 -48.6965 -48.6946 -48.6892 -23.0308 -23.0131 -23.0015 -22.9972
   -22.9957 -22.9920 -22.9350 -22.9293 -22.9270 -22.9253 -22.9237 -22.9204
   -21.9740 -21.9446 -21.9433 -21.9292  -6.8280  -6.6824  -6.3276  -6.0214
    -5.9976  -5.9483  -5.6937  -5.6641  -5.3939  -5.3410  -5.3255  -5.2940
    -4.2179  -4.1527  -4.1364  -3.9819  -3.9780  -3.9705  -3.9413  -3.9039
    -3.8970  -3.6679  -3.6464  -3.5443   5.4277   5.4893   5.5529   5.5695
     5.7461   5.8204   5.9761   6.4057   6.4960   6.5503   7.3073   7.4666
     7.4994   7.5935   7.8505   7.8633   7.9601   7.9706   8.0171   8.6211
     8.8890   8.9234   8.9722   9.0381   9.0610   9.1721   9.3714   9.4027
     9.5723   9.7303   9.8378   9.9191  10.3654  10.3999  10.4257  10.4799
    12.0723  12.1286  12.2551  12.4302  14.4923  14.5206  14.6345  14.6422
    15.2416  15.5179  15.5869  15.6171  15.8216  16.0681  16.0716  16.1351
    16.1393  16.4457  16.8483  17.4688  17.5304

          k = 0.0000 0.1994 0.0000 ( 18523 PWs)   bands (ev):

   -48.6979 -48.6965 -48.6947 -48.6892 -23.0297 -23.0135 -22.9990 -22.9939
   -22.9925 -22.9888 -22.9348 -22.9335 -22.9286 -22.9272 -22.9271 -22.9237
   -21.9715 -21.9443 -21.9437 -21.9303  -6.7755  -6.6766  -6.3708  -6.0081
    -5.9825  -5.9211  -5.7061  -5.6594  -5.4877  -5.3705  -5.3616  -5.3275
    -4.2067  -4.1024  -4.0752  -3.9821  -3.9789  -3.9681  -3.9088  -3.9082
    -3.8621  -3.6875  -3.6507  -3.5631   5.4429   5.4873   5.6656   5.6824
     5.8299   5.9466   6.0746   6.3750   6.5200   6.6074   7.1099   7.4678
     7.4988   7.5516   7.7422   7.7459   7.8861   7.9194   7.9984   8.8123
     8.8427   8.8604   8.9784   9.0424   9.0614   9.0845   9.1858   9.3715
     9.4752   9.5592   9.7273   9.8487  10.3046  10.3085  10.3564  10.4475
    12.1985  12.2914  12.4731  12.6449  14.3821  14.4352  14.6463  14.6593
    15.1181  15.3864  15.5043  15.5494  15.9050  16.2720  16.2756  16.3353
    16.3409  16.6351  16.8300  17.5752  17.6582

          k = 0.0000 0.2493 0.0000 ( 18507 PWs)   bands (ev):

   -48.6978 -48.6964 -48.6948 -48.6893 -23.0284 -23.0140 -22.9958 -22.9898
   -22.9886 -22.9847 -22.9386 -22.9345 -22.9327 -22.9314 -22.9278 -22.9275
   -21.9684 -21.9442 -21.9439 -21.9317  -6.7092  -6.6698  -6.4166  -5.9884
    -5.9637  -5.8869  -5.7219  -5.6620  -5.5958  -5.4020  -5.3980  -5.3686
    -4.1928  -4.0475  -4.0092  -3.9964  -3.9751  -3.9553  -3.9133  -3.8720
    -3.8263  -3.7111  -3.6555  -3.5870   5.4550   5.4851   5.8067   5.8241
     5.9325   6.1077   6.1996   6.3433   6.5514   6.6862   6.9267   7.3431
     7.5379   7.5965   7.6183   7.6236   7.7800   7.8313   7.9745   8.6290
     8.7950   8.8971   8.9395   8.9871   8.9933   9.0919   9.2514   9.3601
     9.3820   9.3970   9.6356   9.7691  10.1993  10.2313  10.2739  10.4043
    12.3491  12.4776  12.7086  12.8857  14.2457  14.3273  14.6667  14.6847
    14.9655  15.2304  15.4119  15.4675  15.9995  16.4390  16.4472  16.6478
    16.6619  16.8024  16.8604  17.7036  17.8040

          k = 0.0000 0.2992 0.0000 ( 18513 PWs)   bands (ev):

   -48.6977 -48.6964 -48.6949 -48.6893 -23.0269 -23.0147 -22.9920 -22.9850
   -22.9839 -22.9800 -22.9444 -22.9376 -22.9363 -22.9343 -22.9326 -22.9277
   -21.9651 -21.9451 -21.9434 -21.9332  -6.6617  -6.6300  -6.4617  -5.9619
    -5.9419  -5.8464  -5.7406  -5.7134  -5.6740  -5.4327  -5.4309  -5.4160
    -4.1764  -4.0132  -3.9908  -3.9706  -3.9438  -3.9396  -3.9192  -3.8337
    -3.7940  -3.7375  -3.6610  -3.6159   5.4634   5.4830   5.9734   5.9921
     6.0539   6.2990   6.3158   6.3431   6.5906   6.7622   6.7922   7.2237
     7.4319   7.4900   7.5825   7.6389   7.6989   7.6991   7.9452   8.3765
     8.6741   8.7441   8.7526   8.9991   9.1299   9.1630   9.2116   9.3207
     9.3558   9.4172   9.5938   9.6846  10.0778  10.1483  10.1811  10.3494
    12.5192  12.6786  12.9521  13.1415  14.0867  14.1984  14.6976  14.7204
    14.7884  15.0534  15.3142  15.3751  16.1005  16.6301  16.6510  16.7640
    16.9946  17.0197  17.1100  17.8482  17.9601

          k = 0.0000 0.3490 0.0000 ( 18520 PWs)   bands (ev):

   -48.6976 -48.6963 -48.6950 -48.6893 -23.0254 -23.0154 -22.9875 -22.9797
   -22.9787 -22.9747 -22.9507 -22.9430 -22.9418 -22.9380 -22.9340 -22.9280
   -21.9617 -21.9463 -21.9427 -21.9348  -6.6516  -6.5391  -6.5039  -5.9289
    -5.9178  -5.8367  -5.8004  -5.7621  -5.6958  -5.4682  -5.4601  -5.4577
    -4.1580  -4.0320  -3.9653  -3.9342  -3.9257  -3.9211  -3.8835  -3.7964
    -3.7690  -3.7656  -3.6680  -3.6495   5.4688   5.4809   6.1624   6.1832
     6.1930   6.2978   6.4938   6.5164   6.6201   6.6378   6.9329   7.1121
     7.2540   7.3501   7.4647   7.5239   7.6309   7.7933   7.9109   8.1096
     8.3978   8.5892   8.7224   9.0151   9.0584   9.1756   9.2587   9.3215
     9.3584   9.5773   9.5988   9.6052   9.9492  10.0591  10.0802  10.2816
    12.7044  12.8876  13.1980  13.4043  13.9093  14.0501  14.5916  14.7402
    14.7679  14.8580  15.2150  15.2762  16.2040  16.7140  16.8383  16.8843
    17.3624  17.3726  17.4030  18.0023  18.0791

          k = 0.0000 0.3989 0.0000 ( 18530 PWs)   bands (ev):

   -48.6976 -48.6962 -48.6951 -48.6894 -23.0240 -23.0163 -22.9824 -22.9739
   -22.9731 -22.9690 -22.9571 -22.9488 -22.9476 -22.9437 -22.9338 -22.9282
   -21.9584 -21.9479 -21.9418 -21.9364  -6.6388  -6.5416  -6.4378  -5.9625
    -5.8919  -5.8904  -5.7858  -5.7497  -5.7262  -5.5238  -5.4808  -5.4782
    -4.1380  -4.0522  -3.9595  -3.9325  -3.8999  -3.8791  -3.8320  -3.7944
    -3.7624  -3.7546  -3.6877  -3.6776   5.4721   5.4792   6.2943   6.3480
     6.3695   6.3937   6.5031   6.6422   6.6937   6.7554   7.0094   7.0685
     7.1132   7.2079   7.2636   7.3161   7.6813   7.8344   7.8718   7.9005
     8.1181   8.4365   8.7104   8.9298   9.0360   9.1956   9.2291   9.4016
     9.4692   9.5146   9.6495   9.7282   9.8191   9.9674   9.9722  10.2000
    12.9007  13.0987  13.4431  13.6678  13.7179  13.8844  14.3795  14.6459
    14.7949  14.8278  15.1175  15.1753  16.3064  16.6522  17.0566  17.1436
    17.6379  17.7349  17.8022  17.9006  18.1555

          k = 0.0000 0.4487 0.0000 ( 18530 PWs)   bands (ev):

   -48.6975 -48.6962 -48.6952 -48.6894 -23.0229 -23.0170 -22.9769 -22.9678
   -22.9674 -22.9634 -22.9632 -22.9549 -22.9536 -22.9496 -22.9336 -22.9283
   -21.9552 -21.9499 -21.9407 -21.9380  -6.6221  -6.5740  -6.3276  -6.0878
    -5.8650  -5.8483  -5.8113  -5.7635  -5.6955  -5.5812  -5.4934  -5.4912
    -4.1170  -4.0735  -3.9531  -3.9395  -3.8762  -3.8263  -3.8229  -3.7919
    -3.7530  -3.7331  -3.7302  -3.6910   5.4739   5.4779   6.3100   6.4126
     6.5164   6.5897   6.6189   6.7585   6.7852   6.8807   6.9162   7.0115
     7.0447   7.0661   7.0886   7.3305   7.5561   7.7320   7.8284   7.8418
     8.0196   8.2891   8.7220   8.8301   9.0630   9.1414   9.2904   9.4341
     9.4772   9.6070   9.6930   9.7136   9.8577   9.8674   9.8767  10.1038
    13.1042  13.3076  13.5170  13.6856  13.7036  13.9271  14.1558  14.4187
    14.8613  14.9002  15.0244  15.0766  16.4047  16.5794  17.2780  17.4259
    17.7049  17.8959  18.0450  18.0808  18.2088

          k = 0.0000 0.4986 0.0000 ( 18534 PWs)   bands (ev):

   -48.6975 -48.6961 -48.6952 -48.6894 -23.0224 -23.0174 -22.9724 -22.9686
   -22.9628 -22.9624 -22.9608 -22.9585 -22.9578 -22.9538 -22.9336 -22.9284
   -21.9524 -21.9524 -21.9394 -21.9394  -6.6014  -6.6001  -6.2103  -6.2103
    -5.8379  -5.8379  -5.8054  -5.8048  -5.6389  -5.6388  -5.4975  -5.4958
    -4.0953  -4.0952  -3.9464  -3.9464  -3.8504  -3.8504  -3.7765  -3.7765
    -3.7655  -3.7651  -3.7094  -3.7092   5.4746   5.4773   6.3478   6.3494
     6.6951   6.6953   6.8170   6.8174   6.8319   6.8332   6.8528   6.8533
     6.9254   6.9258   7.2799   7.2802   7.5764   7.5767   7.7814   7.7816
     8.1493   8.1499   8.7603   8.7618   9.0969   9.0983   9.3583   9.3597
     9.5769   9.5769   9.7359   9.7365   9.7908   9.7908   9.9926   9.9932
    13.3094  13.3125  13.5092  13.5116  13.9228  13.9248  14.1773  14.1794
    14.9366  14.9401  14.9824  14.9852  16.4945  16.4981  17.4958  17.4959
    17.7275  17.7275  18.1354  18.1358  18.2999

          k = 0.0500 0.4986 0.0000 ( 18542 PWs)   bands (ev):

   -48.6975 -48.6961 -48.6952 -48.6894 -23.0223 -23.0173 -22.9762 -22.9739
   -22.9670 -22.9652 -22.9571 -22.9566 -22.9513 -22.9502 -22.9336 -22.9284
   -21.9522 -21.9522 -21.9395 -21.9395  -6.6118  -6.6106  -6.2108  -6.2108
    -5.8651  -5.8648  -5.7667  -5.7664  -5.6400  -5.6400  -5.5030  -5.5013
    -4.0883  -4.0882  -3.9465  -3.9465  -3.8545  -3.8545  -3.7731  -3.7731
    -3.7642  -3.7638  -3.7031  -3.7029   5.4740   5.4767   6.3142   6.3156
     6.5866   6.5867   6.6957   6.6959   6.8628   6.8639   6.8830   6.8831
     7.0414   7.0416   7.3311   7.3313   7.6309   7.6312   7.7828   7.7829
     8.1460   8.1466   8.7510   8.7523   9.1051   9.1064   9.3667   9.3681
     9.5626   9.5626   9.6857   9.6861   9.7644   9.7645  10.0349  10.0354
    13.1977  13.1994  13.6203  13.6212  13.9427  13.9448  14.1901  14.1922
    14.9071  14.9087  15.0178  15.0187  16.4798  16.4833  17.5035  17.5036
    17.7251  17.7251  18.1326  18.1328  18.1980

          k = 0.1000 0.4986 0.0000 ( 18522 PWs)   bands (ev):

   -48.6975 -48.6961 -48.6952 -48.6894 -23.0221 -23.0171 -22.9829 -22.9813
   -22.9731 -22.9718 -22.9501 -22.9501 -22.9446 -22.9442 -22.9336 -22.9284
   -21.9517 -21.9517 -21.9397 -21.9397  -6.6407  -6.6395  -6.2121  -6.2121
    -5.8949  -5.8943  -5.7049  -5.7047  -5.6432  -5.6432  -5.5187  -5.5170
    -4.0685  -4.0684  -3.9468  -3.9468  -3.8650  -3.8650  -3.7634  -3.7633
    -3.7599  -3.7595  -3.6861  -3.6859   5.4720   5.4746   6.2328   6.2338
     6.4135   6.4136   6.4938   6.4940   6.9364   6.9371   6.9583   6.9584
     7.1341   7.1344   7.4529   7.4529   7.7790   7.7792   7.7869   7.7871
     8.1367   8.1373   8.7226   8.7237   9.1318   9.1328   9.3914   9.3928
     9.5214   9.5214   9.5828   9.5830   9.6882   9.6882  10.1149  10.1151
    13.0241  13.0251  13.7885  13.7888  13.9995  14.0016  14.2270  14.2291
    14.8649  14.8659  15.0721  15.0723  16.4347  16.4382  17.5256  17.5256
    17.7187  17.7188  18.0204  18.0211  18.1331

          k = 0.1500 0.4986 0.0000 ( 18510 PWs)   bands (ev):

   -48.6975 -48.6961 -48.6952 -48.6894 -23.0218 -23.0168 -22.9899 -22.9887
   -22.9792 -22.9782 -22.9436 -22.9433 -22.9382 -22.9381 -22.9336 -22.9284
   -21.9509 -21.9508 -21.9401 -21.9401  -6.6821  -6.6810  -6.2143  -6.2143
    -5.9189  -5.9182  -5.6481  -5.6481  -5.6342  -5.6341  -5.5422  -5.5405
    -4.0395  -4.0394  -3.9473  -3.9472  -3.8790  -3.8789  -3.7524  -3.7520
    -3.7482  -3.7482  -3.6623  -3.6621   5.4684   5.4711   6.1311   6.1319
     6.2336   6.2338   6.2951   6.2954   7.0253   7.0258   7.0335   7.0337
     7.1936   7.1940   7.5939   7.5939   7.7937   7.7938   7.9806   7.9807
     8.1222   8.1229   8.6761   8.6767   9.1800   9.1806   9.4303   9.4317
     9.4573   9.4573   9.4672   9.4674   9.5704   9.5705  10.1950  10.1951
    12.8476  12.8483  13.9553  13.9553  14.0850  14.0870  14.2831  14.2852
    14.8238  14.8244  15.1308  15.1309  16.3588  16.3621  17.5589  17.5590
    17.7120  17.7121  17.8245  17.8252  18.1486

          k = 0.2000 0.4986 0.0000 ( 18502 PWs)   bands (ev):

   -48.6975 -48.6961 -48.6952 -48.6894 -23.0214 -23.0164 -22.9967 -22.9956
   -22.9850 -22.9841 -22.9375 -22.9370 -22.9336 -22.9323 -22.9322 -22.9284
   -21.9498 -21.9498 -21.9406 -21.9405  -6.7295  -6.7285  -6.2171  -6.2171
    -5.9388  -5.9380  -5.6541  -5.6540  -5.5704  -5.5688  -5.5599  -5.5598
    -4.0061  -4.0060  -3.9478  -3.9478  -3.8942  -3.8941  -3.7409  -3.7405
    -3.7292  -3.7291  -3.6350  -3.6348   5.4630   5.4656   6.0252   6.0258
     6.0620   6.0622   6.1115   6.1118   7.1147   7.1149   7.1210   7.1213
     7.2404   7.2409   7.7233   7.7234   7.8028   7.8029   8.1039   8.1046
     8.2000   8.2000   8.6148   8.6152   9.2449   9.2454   9.3530   9.3531
     9.3766   9.3766   9.4277   9.4277   9.4801   9.4815  10.2653  10.2654
    12.6774  12.6781  14.1115  14.1116  14.1879  14.1899  14.3517  14.3538
    14.7848  14.7853  15.1910  15.1912  16.2555  16.2586  17.5990  17.5990
    17.6212  17.6219  17.7105  17.7105  18.1784

          k = 0.2500 0.4986 0.0000 ( 18506 PWs)   bands (ev):

   -48.6975 -48.6961 -48.6952 -48.6894 -23.0210 -23.0160 -23.0028 -23.0019
   -22.9902 -22.9893 -22.9336 -22.9321 -22.9316 -22.9284 -22.9271 -22.9270
   -21.9487 -21.9487 -21.9411 -21.9411  -6.7772  -6.7762  -6.2203  -6.2203
    -5.9559  -5.9550  -5.6604  -5.6604  -5.6001  -5.5985  -5.4868  -5.4868
    -3.9736  -3.9735  -3.9484  -3.9484  -3.9093  -3.9093  -3.7251  -3.7246
    -3.7082  -3.7082  -3.6070  -3.6068   5.4550   5.4576   5.9070   5.9072
     5.9240   5.9244   5.9505   5.9506   7.1972   7.1973   7.2254   7.2257
     7.2838   7.2843   7.8139   7.8140   7.8274   7.8276   8.0833   8.0840
     8.4154   8.4154   8.5441   8.5443   9.2166   9.2169   9.2474   9.2474
     9.2868   9.2868   9.3783   9.3784   9.5368   9.5381  10.3234  10.3235
    12.5192  12.5197  14.2526  14.2528  14.2963  14.2984  14.4250  14.4271
    14.7488  14.7493  15.2495  15.2498  16.1336  16.1364  17.4204  17.4211
    17.6409  17.6410  17.7172  17.7172  18.2147

          k = 0.3000 0.4986 0.0000 ( 18506 PWs)   bands (ev):

   -48.6975 -48.6961 -48.6952 -48.6894 -23.0206 -23.0156 -23.0082 -23.0073
   -22.9946 -22.9938 -22.9336 -22.9284 -22.9275 -22.9269 -22.9226 -22.9225
   -21.9475 -21.9475 -21.9416 -21.9416  -6.8209  -6.8199  -6.2236  -6.2236
    -5.9703  -5.9694  -5.6665  -5.6665  -5.6284  -5.6268  -5.4195  -5.4195
    -3.9491  -3.9490  -3.9461  -3.9460  -3.9236  -3.9235  -3.7056  -3.7051
    -3.6874  -3.6873  -3.5805  -3.5803   5.4433   5.4458   5.7739   5.7741
     5.8178   5.8179   5.8333   5.8336   7.2686   7.2686   7.3256   7.3262
     7.3469   7.3472   7.8265   7.8266   7.9026   7.9027   8.0618   8.0626
     8.4681   8.4683   8.6125   8.6125   9.0494   9.0496   9.1553   9.1553
     9.1960   9.1961   9.4717   9.4718   9.5953   9.5967  10.3692  10.3692
    12.3778  12.3783  14.3745  14.3747  14.3996  14.4016  14.4954  14.4976
    14.7169  14.7174  15.3031  15.3034  16.0059  16.0085  17.2336  17.2343
    17.6807  17.6807  17.7311  17.7312  18.2488

          k = 0.3500 0.4986 0.0000 ( 18492 PWs)   bands (ev):

   -48.6975 -48.6961 -48.6952 -48.6894 -23.0202 -23.0152 -23.0125 -23.0117
   -22.9981 -22.9974 -22.9336 -22.9283 -22.9239 -22.9232 -22.9191 -22.9188
   -21.9465 -21.9465 -21.9421 -21.9420  -6.8575  -6.8566  -6.2266  -6.2266
    -5.9821  -5.9812  -5.6718  -5.6718  -5.6528  -5.6512  -5.3623  -5.3622
    -3.9496  -3.9496  -3.9361  -3.9360  -3.9255  -3.9254  -3.6848  -3.6843
    -3.6687  -3.6686  -3.5574  -3.5572   5.4270   5.4293   5.6666   5.6668
     5.7182   5.7183   5.7577   5.7580   7.3262   7.3263   7.3644   7.3650
     7.4838   7.4841   7.8396   7.8397   7.9512   7.9513   8.0412   8.0420
     8.3862   8.3863   8.7798   8.7799   8.8808   8.8809   9.0804   9.0804
     9.1128   9.1129   9.5737   9.5737   9.6501   9.6515  10.4032  10.4032
    12.2590  12.2594  14.4737  14.4740  14.4885  14.4905  14.5565  14.5586
    14.6904  14.6908  15.3485  15.3489  15.8867  15.8891  17.0729  17.0737
    17.7150  17.7151  17.7487  17.7487  18.2755

          k = 0.4000 0.4986 0.0000 ( 18486 PWs)   bands (ev):

   -48.6975 -48.6961 -48.6952 -48.6894 -23.0199 -23.0157 -23.0149 -23.0149
   -23.0008 -23.0000 -22.9336 -22.9283 -22.9212 -22.9205 -22.9164 -22.9162
   -21.9457 -21.9457 -21.9424 -21.9424  -6.8851  -6.8842  -6.2291  -6.2291
    -5.9909  -5.9900  -5.6758  -5.6758  -5.6715  -5.6699  -5.3185  -5.3184
    -3.9501  -3.9500  -3.9460  -3.9459  -3.9118  -3.9118  -3.6662  -3.6657
    -3.6539  -3.6539  -3.5396  -3.5394   5.4072   5.4092   5.5880   5.5882
     5.6531   5.6535   5.7010   5.7012   7.3684   7.3685   7.3968   7.3974
     7.6318   7.6321   7.8519   7.8519   7.9787   7.9787   8.0232   8.0241
     8.2905   8.2906   8.7416   8.7416   8.9075   8.9075   9.0254   9.0254
     9.0456   9.0457   9.6607   9.6608   9.6953   9.6966  10.4265  10.4266
    12.1682  12.1687  14.5470  14.5473  14.5563  14.5583  14.6031  14.6053
    14.6704  14.6708  15.3831  15.3835  15.7899  15.7922  16.9493  16.9500
    17.7415  17.7416  17.7655  17.7655  18.2935

          k = 0.4500 0.4986 0.0000 ( 18510 PWs)   bands (ev):

   -48.6975 -48.6961 -48.6952 -48.6894 -23.0197 -23.0177 -23.0169 -23.0147
   -23.0024 -23.0016 -22.9336 -22.9283 -22.9196 -22.9189 -22.9148 -22.9146
   -21.9452 -21.9451 -21.9427 -21.9426  -6.9021  -6.9012  -6.2307  -6.2306
    -5.9964  -5.9954  -5.6832  -5.6817  -5.6784  -5.6783  -5.2910  -5.2909
    -3.9523  -3.9522  -3.9504  -3.9503  -3.9042  -3.9041  -3.6533  -3.6528
    -3.6444  -3.6444  -3.5284  -3.5282   5.3899   5.3916   5.5400   5.5402
     5.6187   5.6193   5.6659   5.6660   7.3941   7.3942   7.4186   7.4192
     7.7790   7.7795   7.8611   7.8612   7.9913   7.9913   8.0105   8.0115
     8.1768   8.1769   8.6546   8.6546   8.9855   8.9855   8.9917   8.9918
     9.0038   9.0039   9.7189   9.7189   9.7251   9.7265  10.4401  10.4402
    12.1111  12.1115  14.5921  14.5924  14.5986  14.6006  14.6322  14.6343
    14.6580  14.6584  15.4047  15.4051  15.7267  15.7290  16.8713  16.8720
    17.7580  17.7581  17.7776  17.7776  18.3035

          k = 0.5000 0.4986 0.0000 ( 18552 PWs)   bands (ev):

   -48.6975 -48.6961 -48.6952 -48.6894 -23.0196 -23.0183 -23.0176 -23.0146
   -23.0029 -23.0022 -22.9336 -22.9283 -22.9191 -22.9184 -22.9143 -22.9140
   -21.9450 -21.9449 -21.9427 -21.9427  -6.9079  -6.9070  -6.2312  -6.2312
    -5.9982  -5.9972  -5.6872  -5.6857  -5.6792  -5.6792  -5.2816  -5.2816
    -3.9545  -3.9544  -3.9505  -3.9504  -3.9017  -3.9017  -3.6487  -3.6482
    -3.6412  -3.6411  -3.5245  -3.5243   5.3829   5.3846   5.5239   5.5241
     5.6082   5.6090   5.6539   5.6541   7.4027   7.4029   7.4263   7.4270
     7.8646   7.8647   7.8664   7.8671   7.9939   7.9939   8.0058   8.0068
     8.1006   8.1007   8.6262   8.6263   8.9804   8.9805   8.9846   8.9846
     9.0168   9.0168   9.7356   9.7369   9.7393   9.7394  10.4446  10.4447
    12.0916  12.0920  14.6073  14.6076  14.6130  14.6149  14.6420  14.6442
    14.6538  14.6542  15.4120  15.4124  15.7048  15.7070  16.8447  16.8454
    17.7636  17.7636  17.7821  17.7821  18.3067

          k = 0.4500 0.4487 0.0000 ( 18507 PWs)   bands (ev):

   -48.6975 -48.6961 -48.6952 -48.6894 -23.0198 -23.0177 -23.0156 -23.0147
   -23.0025 -23.0004 -22.9336 -22.9283 -22.9209 -22.9187 -22.9162 -22.9142
   -21.9457 -21.9449 -21.9428 -21.9424  -6.8998  -6.8923  -6.2499  -6.2100
    -5.9986  -5.9896  -5.6837  -5.6794  -5.6777  -5.6716  -5.3069  -5.2935
    -3.9553  -3.9513  -3.9492  -3.9448  -3.9103  -3.9030  -3.6600  -3.6547
    -3.6528  -3.6424  -3.5344  -3.5297   5.3841   5.4078   5.5233   5.5888
     5.6098   5.6522   5.6737   5.6819   7.3595   7.3831   7.4128   7.4414
     7.6181   7.8533   7.8632   7.8636   7.9643   7.9943   8.0251   8.0358
     8.1251   8.2688   8.6418   8.7247   8.9062   8.9663   8.9819   9.0234
     9.0382   9.0427   9.6569   9.6925   9.7399   9.7429  10.4248  10.4465
    12.0865  12.1735  14.5465  14.5529  14.5859  14.6081  14.6179  14.6532
    14.6609  14.6716  15.3759  15.4198  15.7056  15.7913  16.8416  16.9519
    17.7167  17.7245  17.7884  17.8230  18.2560

          k = 0.4000 0.3989 0.0000 ( 18503 PWs)   bands (ev):

   -48.6975 -48.6961 -48.6952 -48.6894 -23.0203 -23.0166 -23.0150 -23.0090
   -23.0021 -22.9946 -22.9336 -22.9283 -22.9269 -22.9222 -22.9190 -22.9145
   -21.9479 -21.9448 -21.9429 -21.9413  -6.8775  -6.8483  -6.3025  -6.1478
    -6.0009  -5.9659  -5.6987  -5.6569  -5.6539  -5.6492  -5.3787  -5.3272
    -3.9579  -3.9538  -3.9455  -3.9349  -3.9175  -3.9067  -3.6941  -3.6872
    -3.6730  -3.6439  -3.5635  -3.5444   5.3853   5.4429   5.5212   5.6131
     5.7307   5.7649   5.7773   5.8138   7.2483   7.2704   7.2716   7.4422
     7.4844   7.8205   7.8615   7.8644   7.8664   7.9585   8.1073   8.1156
     8.1982   8.3990   8.6004   8.6875   8.9249   8.9753   8.9923   9.0439
     9.1913   9.1964   9.4534   9.5821   9.7505   9.7533  10.3634  10.4519
    12.0714  12.3962  14.3708  14.3769  14.4206  14.6099  14.6332  14.6511
    14.7139  14.7241  15.2759  15.4417  15.7047  16.0082  16.8290  17.2262
    17.5640  17.5829  17.8604  17.9441  18.1002

          k = 0.3500 0.3490 0.0000 ( 18521 PWs)   bands (ev):

   -48.6975 -48.6962 -48.6951 -48.6894 -23.0214 -23.0151 -23.0149 -23.0017
   -22.9987 -22.9853 -22.9363 -22.9337 -22.9315 -22.9283 -22.9194 -22.9148
   -21.9514 -21.9446 -21.9432 -21.9396  -6.8432  -6.7794  -6.3811  -6.0490
    -6.0046  -5.9286  -5.7270  -5.6206  -5.6156  -5.6126  -5.4859  -5.3773
    -3.9730  -3.9618  -3.9578  -3.9398  -3.9126  -3.8772  -3.7485  -3.7421
    -3.7023  -3.6415  -3.6099  -3.5662   5.3872   5.4615   5.5180   5.6179
     5.8195   5.9014   6.0715   6.1034   6.9317   7.1037   7.1261   7.4884
     7.5518   7.6519   7.7701   7.8771   7.8807   7.8998   8.1602   8.2290
     8.2357   8.3201   8.4902   8.7604   8.8604   8.9695   9.0806   9.2298
     9.3146   9.4013   9.4067   9.4462   9.7681   9.7706  10.2556  10.4602
    12.0482  12.7130  14.0989  14.1045  14.1634  14.6129  14.6477  14.6694
    14.8006  14.8101  15.1358  15.4756  15.7033  16.2698  16.8001  17.3320
    17.3768  17.5198  17.8411  17.9729  18.1412

          k = 0.3000 0.2992 0.0000 ( 18525 PWs)   bands (ev):

   -48.6976 -48.6962 -48.6951 -48.6894 -23.0231 -23.0148 -23.0128 -23.0011
   -22.9855 -22.9737 -22.9481 -22.9432 -22.9338 -22.9281 -22.9199 -22.9153
   -21.9559 -21.9443 -21.9435 -21.9375  -6.8012  -6.6920  -6.4761  -6.0092
    -5.9209  -5.8809  -5.7682  -5.6127  -5.5720  -5.5655  -5.5636  -5.4368
    -4.0202  -3.9667  -3.9627  -3.9326  -3.9199  -3.8298  -3.8199  -3.8142
    -3.7408  -3.6703  -3.6314  -3.5911   5.3894   5.4711   5.5139   5.6226
     5.9315   6.0890   6.4426   6.4849   6.6189   6.9529   6.9749   7.3207
     7.5475   7.6366   7.6523   7.7075   7.8216   7.9004   7.9049   8.3853
     8.3912   8.4919   8.5803   8.7786   8.8554   8.9735   9.0699   9.1373
     9.3167   9.6224   9.6348   9.6404   9.7923   9.7944  10.0954  10.4709
    12.0194  13.0801  13.7559  13.7611  13.8375  14.6167  14.6436  14.7368
    14.9181  14.9266  14.9852  15.5181  15.7015  16.4986  16.7432  17.0606
    17.1215  17.5051  17.6467  18.1150  18.4097

          k = 0.2500 0.2493 0.0000 ( 18520 PWs)   bands (ev):

   -48.6976 -48.6963 -48.6950 -48.6893 -23.0252 -23.0144 -23.0105 -23.0004
   -22.9710 -22.9620 -22.9606 -22.9551 -22.9341 -22.9279 -22.9204 -22.9158
   -21.9609 -21.9440 -21.9438 -21.9352  -6.7578  -6.5941  -6.5782  -6.0143
    -5.8281  -5.8178  -5.7737  -5.7413  -5.5134  -5.5074  -5.5043  -5.4991
    -4.0717  -3.9722  -3.9682  -3.9280  -3.9245  -3.9037  -3.8989  -3.7856
    -3.7808  -3.7399  -3.6146  -3.6129   5.3920   5.4774   5.5090   5.6250
     6.0557   6.3237   6.3418   6.8117   6.8336   6.8511   6.9085   6.9117
     7.1347   7.6141   7.6394   7.7298   7.7309   7.9302   7.9353   8.5713
     8.5766   8.6733   8.6869   8.7170   8.9653   8.9871   9.0030   9.2097
     9.2179   9.8228   9.8245   9.8680   9.8736   9.8799   9.8892  10.4827
    11.9882  13.3690  13.3738  13.4626  13.4694  14.6210  14.6391  14.8407
    14.8502  15.0616  15.0691  15.5647  15.6994  16.6425  16.6619  16.7794
    16.8428  17.1362  17.6230  17.9259  18.2726

          k = 0.2000 0.1994 0.0000 ( 18537 PWs)   bands (ev):

   -48.6977 -48.6964 -48.6948 -48.6893 -23.0274 -23.0139 -23.0082 -22.9998
   -22.9743 -22.9696 -22.9556 -22.9471 -22.9344 -22.9276 -22.9209 -22.9163
   -21.9660 -21.9441 -21.9437 -21.9328  -6.7207  -6.6780  -6.4944  -6.0194
    -5.8693  -5.8545  -5.7767  -5.6205  -5.5581  -5.4486  -5.4460  -5.4384
    -4.1223  -3.9938  -3.9900  -3.9776  -3.9737  -3.9360  -3.9164  -3.8333
    -3.8127  -3.7347  -3.6322  -3.5886   5.3945   5.4823   5.5026   5.6203
     6.1069   6.1802   6.4825   6.6006   6.6557   6.6892   6.7113   7.2489
     7.3256   7.5724   7.6378   7.6818   7.8206   7.9620   7.9673   8.5927
     8.7639   8.7779   8.7832   8.9555   8.9980   9.0810   9.0830   9.1291
     9.3248   9.6119   9.8593   9.8609  10.0831  10.0885  10.1033  10.4947
    11.9575  12.9656  12.9701  13.0869  13.8306  14.6255  14.6347  14.7471
    14.9767  15.2232  15.2296  15.6108  15.6974  16.4811  16.5137  16.5670
    16.7637  16.7743  17.3588  17.5459  18.1308

          k = 0.1500 0.1496 0.0000 ( 18532 PWs)   bands (ev):

   -48.6978 -48.6965 -48.6947 -48.6892 -23.0294 -23.0134 -23.0062 -22.9992
   -22.9858 -22.9809 -22.9423 -22.9354 -22.9348 -22.9273 -22.9214 -22.9167
   -21.9706 -21.9444 -21.9434 -21.9307  -6.7668  -6.6969  -6.4021  -6.0242
    -5.9392  -5.9160  -5.7335  -5.6089  -5.4766  -5.3881  -5.3822  -5.3714
    -4.1672  -4.0822  -4.0796  -3.9825  -3.9786  -3.9432  -3.9091  -3.8815
    -3.8792  -3.6953  -3.6415  -3.5629   5.3967   5.4863   5.4929   5.5984
     5.9193   6.1016   6.2622   6.2926   6.5904   6.6122   6.9132   7.5129
     7.5530   7.5881   7.6593   7.7441   7.8989   7.9915   7.9969   8.5011
     8.8447   8.9501   8.9894   8.9953   9.0724   9.1894   9.2394   9.3036
     9.3281   9.4541   9.9023   9.9041  10.2618  10.2658  10.2712  10.5055
    11.9302  12.5746  12.5789  12.7199  14.1563  14.6293  14.6312  14.6803
    15.1283  15.3910  15.3964  15.6520  15.6954  16.2549  16.2835  16.3193
    16.4355  16.8211  16.8350  17.4621  17.8168

          k = 0.1000 0.0997 0.0000 ( 18539 PWs)   bands (ev):

   -48.6979 -48.6965 -48.6946 -48.6892 -23.0310 -23.0130 -23.0048 -22.9989
   -22.9949 -22.9899 -22.9350 -22.9317 -22.9270 -22.9260 -22.9217 -22.9170
   -21.9744 -21.9447 -21.9432 -21.9290  -6.8367  -6.6882  -6.3262  -6.0286
    -5.9902  -5.9529  -5.7031  -5.6477  -5.3581  -5.3390  -5.3230  -5.3111
    -4.2024  -4.1592  -4.1578  -3.9864  -3.9825  -3.9490  -3.9386  -3.9182
    -3.9033  -3.6653  -3.6434  -3.5405   5.3981   5.4729   5.4894   5.5407
     5.7823   5.8138   6.0003   6.3820   6.5184   6.5400   7.2519   7.4660
     7.4861   7.7943   7.8372   7.8711   7.9580   8.0153   8.0206   8.4073
     8.9085   8.9550   8.9829   9.0357   9.1795   9.1866   9.2804   9.4591
     9.5901   9.6635   9.9520   9.9545  10.3685  10.4049  10.4103  10.5142
    11.9090  12.2313  12.2354  12.4032  14.4135  14.6277  14.6332  14.6444
    15.2692  15.5466  15.5514  15.6843  15.6938  15.9963  16.0873  16.1164
    16.1241  16.4473  16.8502  17.3921  17.5589

          k = 0.0500 0.0499 0.0000 ( 18550 PWs)   bands (ev):

   -48.6980 -48.6966 -48.6945 -48.6892 -23.0320 -23.0127 -23.0043 -23.0003
   -22.9992 -22.9951 -22.9352 -22.9268 -22.9252 -22.9215 -22.9204 -22.9167
   -21.9768 -21.9448 -21.9430 -21.9279  -6.8813  -6.6891  -6.2756  -6.0328
    -6.0127  -5.9762  -5.6867  -5.6716  -5.3061  -5.2806  -5.2803  -5.2672
    -4.2248  -4.2129  -4.2125  -3.9890  -3.9850  -3.9764  -3.9528  -3.9444
    -3.8995  -3.6466  -3.6414  -3.5253   5.3980   5.4323   5.4575   5.4915
     5.6572   5.6999   5.8831   6.4388   6.4753   6.4962   7.4348   7.4447
     7.5976   7.8269   7.9741   7.9857   7.9952   8.0311   8.0358   8.2717
     8.7212   8.9492   8.9612   9.0152   9.3125   9.3216   9.3416   9.6587
     9.7020   9.9263  10.0013  10.0049  10.4291  10.4919  10.4973  10.5198
    11.8953  11.9839  11.9879  12.1807  14.5786  14.6257  14.6294  14.6355
    15.3698  15.6631  15.6673  15.6924  15.7050  15.7814  15.8035  15.9914
    16.0003  16.2459  16.8628  17.3456  17.3833

          k = 0.0000 0.0000 0.0000 ( 18565 PWs)   bands (ev):

   -48.6980 -48.6966 -48.6945 -48.6892 -23.0324 -23.0127 -23.0047 -23.0015
   -22.9998 -22.9963 -22.9353 -22.9267 -22.9235 -22.9208 -22.9190 -22.9160
   -21.9776 -21.9449 -21.9430 -21.9276  -6.8967  -6.6907  -6.2578  -6.0350
    -6.0179  -5.9842  -5.6840  -5.6774  -5.2945  -5.2650  -5.2553  -5.2488
    -4.2328  -4.2324  -4.2321  -3.9907  -3.9889  -3.9858  -3.9551  -3.9527
    -3.8982  -3.6407  -3.6395  -3.5200   5.3944   5.4041   5.4210   5.4921
     5.6179   5.6720   5.8547   6.4537   6.4656   6.4815   7.4229   7.4317
     7.8364   7.8399   8.0000   8.0113   8.0302   8.0411   8.0413   8.1062
     8.6278   8.9617   8.9651   9.0086   9.3558   9.3673   9.3700   9.7327
     9.7536  10.0224  10.0245  10.0339  10.4486  10.5200  10.5233  10.5269
    11.8869  11.8948  11.8950  12.0989  14.6244  14.6262  14.6324  14.6395
    15.4063  15.6831  15.6952  15.6969  15.7075  15.7094  15.7144  15.9493
    15.9595  16.1851  16.8662  17.3194  17.3227

          k = 0.0000 0.0000 0.0354 ( 18585 PWs)   bands (ev):

   -48.6980 -48.6966 -48.6945 -48.6892 -23.0318 -23.0121 -23.0047 -23.0015
   -22.9998 -22.9964 -22.9359 -22.9273 -22.9235 -22.9208 -22.9190 -22.9160
   -21.9774 -21.9451 -21.9429 -21.9277  -6.8947  -6.6900  -6.2524  -6.0337
    -6.0177  -5.9844  -5.6821  -5.6755  -5.3010  -5.2721  -5.2594  -5.2529
    -4.2304  -4.2277  -4.2271  -3.9905  -3.9887  -3.9824  -3.9553  -3.9529
    -3.9004  -3.6437  -3.6425  -3.5225   5.4042   5.4060   5.4209   5.5086
     5.6182   5.6769   5.8606   6.4574   6.4694   6.4765   7.4112   7.4200
     7.8365   7.8403   8.0070   8.0181   8.0285   8.0288   8.0399   8.1123
     8.6318   8.9770   8.9804   8.9804   9.3436   9.3548   9.3646   9.7336
     9.7545   9.9984  10.0161  10.0278  10.4491  10.5125  10.5158  10.5264
    11.8962  11.9109  11.9188  12.0976  14.6089  14.6108  14.6369  14.6440
    15.4083  15.6832  15.6968  15.6977  15.7028  15.7058  15.7249  15.9592
    15.9706  16.2006  16.8937  17.3234  17.3391

          k = 0.0000 0.0000 0.0707 ( 18573 PWs)   bands (ev):

   -48.6980 -48.6966 -48.6945 -48.6892 -23.0300 -23.0106 -23.0046 -23.0014
   -22.9999 -22.9964 -22.9377 -22.9289 -22.9235 -22.9208 -22.9191 -22.9161
   -21.9768 -21.9456 -21.9426 -21.9280  -6.8890  -6.6881  -6.2363  -6.0292
    -6.0171  -5.9850  -5.6764  -5.6698  -5.3202  -5.2929  -5.2713  -5.2649
    -4.2246  -4.2128  -4.2122  -3.9898  -3.9880  -3.9725  -3.9560  -3.9536
    -3.9069  -3.6524  -3.6512  -3.5299   5.4045   5.4206   5.4386   5.5577
     5.6191   5.6917   5.8800   6.4616   6.4686   6.4806   7.3776   7.3865
     7.8372   7.8417   7.9907   8.0247   8.0276   8.0357   8.0379   8.1306
     8.6435   8.8974   9.0213   9.0246   9.3074   9.3178   9.3486   9.7363
     9.7571   9.9232   9.9991  10.0116  10.4505  10.4904  10.4936  10.5250
    11.8997  11.9805  11.9882  12.0936  14.5629  14.5649  14.6503  14.6575
    15.4140  15.6641  15.6696  15.6835  15.6966  15.7005  15.8101  15.9888
    16.0035  16.2483  16.9732  17.3353  17.3870

          k = 0.0000 0.0000 0.1061 ( 18567 PWs)   bands (ev):

   -48.6980 -48.6967 -48.6944 -48.6892 -23.0272 -23.0081 -23.0045 -23.0013
   -23.0000 -22.9965 -22.9407 -22.9315 -22.9234 -22.9207 -22.9192 -22.9162
   -21.9758 -21.9466 -21.9422 -21.9284  -6.8795  -6.6859  -6.2098  -6.0207
    -6.0161  -5.9861  -5.6669  -5.6604  -5.3513  -5.3268  -5.2901  -5.2838
    -4.2151  -4.1891  -4.1885  -3.9888  -3.9869  -3.9571  -3.9563  -3.9547
    -3.9175  -3.6668  -3.6657  -3.5422   5.4050   5.4201   5.4850   5.6206
     5.6382   5.7159   5.9192   6.4371   6.4873   6.4992   7.3262   7.3352
     7.8395   7.8449   7.9275   8.0181   8.0291   8.0602   8.0697   8.1611
     8.6628   8.7649   9.0904   9.0934   9.2491   9.2585   9.3227   9.7407
     9.7615   9.8069   9.9754   9.9891  10.4528  10.4539  10.4568  10.5226
    11.9055  12.0871  12.0893  12.0968  14.4877  14.4900  14.6726  14.6799
    15.4233  15.6120  15.6180  15.6840  15.6918  15.6962  15.9386  16.0382
    16.0575  16.3317  17.0958  17.3548  17.4632

          k = 0.0000 0.0000 0.1414 ( 18559 PWs)   bands (ev):

   -48.6979 -48.6967 -48.6944 -48.6892 -23.0233 -23.0046 -23.0044 -23.0012
   -23.0002 -22.9966 -22.9447 -22.9351 -22.9233 -22.9206 -22.9193 -22.9163
   -21.9744 -21.9479 -21.9415 -21.9290  -6.8667  -6.6847  -6.1734  -6.0147
    -6.0069  -5.9874  -5.6538  -5.6473  -5.3931  -5.3724  -5.3147  -5.3083
    -4.2020  -4.1579  -4.1574  -3.9873  -3.9854  -3.9585  -3.9562  -3.9345
    -3.9318  -3.6867  -3.6856  -3.5590   5.4057   5.4194   5.5340   5.6226
     5.7482   5.7490   5.9879   6.4037   6.5133   6.5251   7.2619   7.2711
     7.8387   7.8441   7.8504   8.0090   8.0199   8.1042   8.1127   8.2036
     8.5899   8.6895   9.1721   9.1788   9.1802   9.1816   9.2878   9.6609
     9.7469   9.7676   9.9494   9.9642  10.4035  10.4062  10.4559  10.5193
    11.9134  12.0783  12.2296  12.2369  14.3855  14.3882  14.7036  14.7110
    15.4360  15.5458  15.5523  15.6799  15.6846  15.6957  16.0818  16.1172
    16.1310  16.4579  17.2464  17.3814  17.5638

          k = 0.0000 0.0000 0.1768 ( 18553 PWs)   bands (ev):

   -48.6978 -48.6968 -48.6944 -48.6892 -23.0185 -23.0042 -23.0010 -23.0003
   -23.0003 -22.9968 -22.9498 -22.9395 -22.9231 -22.9205 -22.9194 -22.9164
   -21.9726 -21.9495 -21.9407 -21.9298  -6.8508  -6.6857  -6.1276  -6.0130
    -5.9892  -5.9861  -5.6372  -5.6307  -5.4440  -5.4284  -5.3435  -5.3371
    -4.1857  -4.1209  -4.1203  -3.9855  -3.9836  -3.9604  -3.9580  -3.9496
    -3.9078  -3.7118  -3.7107  -3.5803   5.4066   5.4185   5.5744   5.6249
     5.7901   5.8851   6.0950   6.3623   6.5466   6.5582   7.1893   7.1988
     7.7241   7.8515   7.8585   7.9977   8.0086   8.1584   8.1661   8.2583
     8.3811   8.7231   9.0811   9.0883   9.2451   9.2812   9.2835   9.4971
     9.7548   9.7754   9.9235   9.9396  10.3401  10.3424  10.4599  10.5152
    11.9233  12.0674  12.3938  12.4009  14.2589  14.2621  14.7432  14.7507
    15.4518  15.4698  15.4768  15.6650  15.6853  15.6950  16.1786  16.2223
    16.2671  16.6331  17.4021  17.4142  17.4583

          k = 0.0000 0.0000 0.2122 ( 18549 PWs)   bands (ev):

   -48.6978 -48.6968 -48.6944 -48.6892 -23.0128 -23.0040 -23.0009 -23.0005
   -22.9970 -22.9953 -22.9556 -22.9447 -22.9230 -22.9204 -22.9195 -22.9165
   -21.9706 -21.9514 -21.9398 -21.9308  -6.8323  -6.6902  -6.0733  -6.0110
    -5.9912  -5.9572  -5.6172  -5.6107  -5.5019  -5.4928  -5.3751  -5.3688
    -4.1665  -4.0796  -4.0790  -3.9834  -3.9815  -3.9703  -3.9625  -3.9602
    -3.8773  -3.7417  -3.7407  -3.6054   5.4075   5.4176   5.6020   5.6273
     5.8382   6.0456   6.2421   6.3139   6.5869   6.5984   7.1126   7.1223
     7.5845   7.8615   7.8692   7.9845   7.9952   8.1471   8.2223   8.2293
     8.3252   8.7630   8.9806   8.9870   9.1962   9.3268   9.3930   9.3949
     9.7644   9.7849   9.8992   9.9162  10.2645  10.2665  10.4645  10.5105
    11.9350  12.0547  12.5753  12.5821  14.1111  14.1147  14.7910  14.7986
    15.3879  15.3953  15.4702  15.6475  15.6861  15.6943  16.2769  16.3291
    16.4301  16.8541  17.3341  17.3928  17.4524

          k = 0.0000 0.0000 0.2475 ( 18546 PWs)   bands (ev):

   -48.6977 -48.6969 -48.6944 -48.6892 -23.0064 -23.0038 -23.0007 -23.0007
   -22.9971 -22.9896 -22.9622 -22.9505 -22.9229 -22.9202 -22.9197 -22.9166
   -21.9684 -21.9535 -21.9388 -21.9318  -6.8119  -6.6988  -6.0115  -6.0088
    -5.9935  -5.9196  -5.5940  -5.5875  -5.5653  -5.5631  -5.4085  -5.4022
    -4.1448  -4.0355  -4.0348  -3.9933  -3.9810  -3.9791  -3.9649  -3.9626
    -3.8438  -3.7759  -3.7749  -3.6342   5.4086   5.4164   5.6187   5.6298
     5.8923   6.2259   6.2595   6.4246   6.6341   6.6454   7.0345   7.0445
     7.4217   7.8738   7.8822   7.8962   7.9698   7.9802   8.2952   8.3016
     8.4045   8.8085   8.8751   8.8809   9.1426   9.1590   9.5103   9.5118
     9.7757   9.7960   9.8767   9.8945  10.1779  10.1794  10.4696  10.5052
    11.9482  12.0406  12.7686  12.7751  13.9454  13.9495  14.8466  14.8544
    15.3031  15.3108  15.4908  15.6278  15.6870  15.6935  16.3873  16.4487
    16.5961  17.1076  17.2002  17.2691  17.4943

          k = 0.0000 0.0000 0.2829 ( 18532 PWs)   bands (ev):

   -48.6977 -48.6970 -48.6944 -48.6892 -23.0037 -23.0009 -23.0006 -22.9994
   -22.9973 -22.9835 -22.9692 -22.9567 -22.9228 -22.9201 -22.9198 -22.9167
   -21.9659 -21.9558 -21.9377 -21.9329  -6.7904  -6.7117  -6.0064  -5.9959
    -5.9435  -5.8735  -5.6391  -5.6301  -5.5679  -5.5615  -5.4424  -5.4360
    -4.1211  -4.0180  -3.9898  -3.9891  -3.9785  -3.9764  -3.9675  -3.9653
    -3.8139  -3.8130  -3.8084  -3.6658   5.4098   5.4153   5.6279   5.6321
     5.9508   6.2007   6.4211   6.6351   6.6877   6.6989   6.9576   6.9678
     7.2391   7.6361   7.8880   7.8969   7.9538   7.9641   8.3766   8.3826
     8.4964   8.7683   8.7738   8.8589   8.9999   9.0859   9.6300   9.6310
     9.7886   9.8087   9.8559   9.8744  10.0816  10.0827  10.4753  10.4995
    11.9626  12.0255  12.9690  12.9752  13.7653  13.7698  14.9096  14.9175
    15.2180  15.2258  15.5130  15.6063  15.6879  15.6926  16.5088  16.5784
    16.7682  17.0603  17.1362  17.3799  17.5020

          k = 0.0000 0.0000 0.3182 ( 18504 PWs)   bands (ev):

   -48.6976 -48.6970 -48.6944 -48.6892 -23.0036 -23.0010 -23.0005 -22.9974
   -22.9921 -22.9782 -22.9757 -22.9631 -22.9227 -22.9201 -22.9199 -22.9168
   -21.9634 -21.9583 -21.9365 -21.9341  -6.7686  -6.7282  -6.0038  -5.9984
    -5.8706  -5.8198  -5.7165  -5.6960  -5.5392  -5.5329  -5.4759  -5.4696
    -4.0960  -4.0438  -3.9758  -3.9737  -3.9702  -3.9680  -3.9439  -3.9431
    -3.8550  -3.8542  -3.7720  -3.6999   5.4110   5.4141   5.6321   5.6339
     6.0124   6.1389   6.6262   6.7476   6.7585   6.8674   6.8833   6.8938
     7.0416   7.3738   7.9037   7.9131   7.9371   7.9472   8.4658   8.4714
     8.6016   8.6631   8.6685   8.8532   8.9129   9.0278   9.7493   9.7498
     9.8031   9.8229   9.8368   9.8558   9.9770   9.9776  10.4812  10.4935
    11.9778  12.0098  13.1725  13.1783  13.5741  13.5791  14.9792  14.9871
    15.1346  15.1425  15.5362  15.5835  15.6886  15.6918  16.6394  16.7152
    16.9180  16.9471  16.9974  17.3180  17.5809

          k = 0.0000 0.0000 0.3536 ( 18502 PWs)   bands (ev):

   -48.6976 -48.6970 -48.6944 -48.6892 -23.0035 -23.0010 -23.0004 -22.9974
   -22.9852 -22.9839 -22.9717 -22.9684 -22.9226 -22.9201 -22.9199 -22.9168
   -21.9609 -21.9608 -21.9353 -21.9353  -6.7479  -6.7470  -6.0017  -6.0006
    -5.7944  -5.7943  -5.7600  -5.7599  -5.5089  -5.5080  -5.5025  -5.5016
    -4.0700  -4.0700  -3.9730  -3.9730  -3.9709  -3.9709  -3.8987  -3.8985
    -3.8979  -3.8977  -3.7356  -3.7355   5.4118   5.4133   5.6333   5.6346
     6.0751   6.0763   6.8126   6.8134   6.8233   6.8241   6.8351   6.8352
     7.1155   7.1157   7.9200   7.9206   7.9297   7.9303   8.5616   8.5618
     8.5670   8.5672   8.7200   8.7207   8.9692   8.9701   9.8186   9.8198
     9.8381   9.8392   9.8657   9.8657   9.8660   9.8660  10.4868  10.4879
    11.9926  11.9948  13.3746  13.3762  13.3801  13.3815  15.0536  15.0555
    15.0617  15.0633  15.5588  15.5610  15.6890  15.6915  16.7767  16.7768
    16.8559  16.8560  17.1309  17.1321  17.6186

          k = 0.0000 0.0499 0.3536 ( 18516 PWs)   bands (ev):

   -48.6976 -48.6970 -48.6944 -48.6892 -23.0031 -23.0006 -22.9999 -22.9969
   -22.9851 -22.9838 -22.9717 -22.9684 -22.9232 -22.9206 -22.9205 -22.9173
   -21.9606 -21.9606 -21.9354 -21.9354  -6.7423  -6.7414  -5.9985  -5.9974
    -5.8072  -5.8071  -5.7629  -5.7628  -5.5064  -5.5055  -5.5053  -5.5044
    -4.0744  -4.0744  -3.9731  -3.9731  -3.9666  -3.9666  -3.9001  -3.8999
    -3.8879  -3.8877  -3.7353  -3.7352   5.4285   5.4301   5.6502   5.6515
     6.0832   6.0844   6.8094   6.8102   6.8278   6.8287   6.8335   6.8336
     7.1206   7.1209   7.8859   7.8865   7.9198   7.9204   8.5013   8.5014
     8.5217   8.5218   8.7819   8.7825   9.0178   9.0185   9.7780   9.7791
     9.8157   9.8168   9.8590   9.8593   9.8644   9.8647  10.4764  10.4774
    12.0357  12.0379  13.3794  13.3810  13.3842  13.3856  15.0410  15.0429
    15.0462  15.0478  15.5387  15.5409  15.7339  15.7363  16.7995  16.7997
    16.8717  16.8718  17.1500  17.1512  17.6406

          k = 0.0000 0.0997 0.3536 ( 18512 PWs)   bands (ev):

   -48.6975 -48.6970 -48.6945 -48.6893 -23.0019 -22.9994 -22.9985 -22.9955
   -22.9848 -22.9835 -22.9719 -22.9685 -22.9250 -22.9222 -22.9220 -22.9188
   -21.9600 -21.9600 -21.9357 -21.9357  -6.7254  -6.7245  -5.9891  -5.9881
    -5.8416  -5.8415  -5.7709  -5.7708  -5.5138  -5.5128  -5.5027  -5.5018
    -4.0835  -4.0834  -3.9735  -3.9735  -3.9550  -3.9549  -3.9040  -3.9038
    -3.8620  -3.8618  -3.7344  -3.7343   5.4783   5.4799   5.7000   5.7013
     6.1081   6.1092   6.8015   6.8021   6.8287   6.8288   6.8415   6.8424
     7.1350   7.1352   7.7934   7.7938   7.8889   7.8894   8.3969   8.3972
     8.4232   8.4233   8.8812   8.8817   9.1246   9.1253   9.6672   9.6683
     9.7537   9.7548   9.8397   9.8400   9.8605   9.8608  10.4457  10.4468
    12.1559  12.1581  13.3945  13.3961  13.3974  13.3987  15.0007  15.0023
    15.0036  15.0055  15.4794  15.4816  15.8646  15.8670  16.8659  16.8660
    16.9186  16.9187  17.2058  17.2070  17.7039

          k = 0.0000 0.1496 0.3536 ( 18522 PWs)   bands (ev):

   -48.6975 -48.6970 -48.6945 -48.6893 -22.9998 -22.9974 -22.9961 -22.9931
   -22.9843 -22.9830 -22.9721 -22.9687 -22.9278 -22.9250 -22.9245 -22.9212
   -21.9590 -21.9589 -21.9363 -21.9363  -6.6978  -6.6969  -5.9737  -5.9727
    -5.8901  -5.8899  -5.7825  -5.7824  -5.5277  -5.5268  -5.5051  -5.5043
    -4.0899  -4.0899  -3.9741  -3.9741  -3.9389  -3.9389  -3.9102  -3.9100
    -3.8277  -3.8275  -3.7315  -3.7314   5.5603   5.5619   5.7795   5.7808
     6.1505   6.1517   6.7928   6.7934   6.8203   6.8204   6.8644   6.8652
     7.1561   7.1562   7.6628   7.6632   7.8344   7.8348   8.2786   8.2790
     8.3086   8.3087   8.9617   8.9620   9.2485   9.2491   9.5179   9.5188
     9.6666   9.6677   9.8105   9.8108   9.8532   9.8535  10.3970  10.3980
    12.3332  12.3353  13.4219  13.4220  13.4232  13.4236  14.9284  14.9300
    14.9424  14.9443  15.3835  15.3857  16.0714  16.0738  16.9695  16.9696
    16.9951  16.9952  17.2936  17.2947  17.8000

          k = 0.0000 0.1994 0.3536 ( 18530 PWs)   bands (ev):

   -48.6974 -48.6969 -48.6946 -48.6893 -22.9970 -22.9945 -22.9928 -22.9898
   -22.9836 -22.9824 -22.9724 -22.9689 -22.9316 -22.9288 -22.9278 -22.9245
   -21.9576 -21.9576 -21.9370 -21.9370  -6.6603  -6.6594  -5.9527  -5.9516
    -5.9460  -5.9458  -5.7954  -5.7953  -5.5469  -5.5460  -5.5187  -5.5179
    -4.0893  -4.0893  -3.9746  -3.9746  -3.9229  -3.9229  -3.9181  -3.9179
    -3.7905  -3.7903  -3.7252  -3.7251   5.6730   5.6745   5.8825   5.8838
     6.2128   6.2139   6.7886   6.7891   6.8074   6.8075   6.8966   6.8974
     7.1819   7.1820   7.5138   7.5141   7.7557   7.7561   8.1481   8.1485
     8.1853   8.1855   8.9679   8.9681   9.3726   9.3731   9.3933   9.3938
     9.5751   9.5762   9.7749   9.7752   9.8414   9.8417  10.3335  10.3345
    12.5479  12.5500  13.4604  13.4618  13.4641  13.4657  14.8331  14.8347
    14.8590  14.8609  15.2555  15.2576  16.3408  16.3432  17.0990  17.0990
    17.1021  17.1022  17.4051  17.4061  17.9145

          k = 0.0000 0.2493 0.3536 ( 18528 PWs)   bands (ev):

   -48.6973 -48.6969 -48.6947 -48.6894 -22.9934 -22.9910 -22.9888 -22.9858
   -22.9827 -22.9817 -22.9728 -22.9692 -22.9362 -22.9334 -22.9319 -22.9287
   -21.9559 -21.9559 -21.9380 -21.9380  -6.6140  -6.6131  -6.0054  -6.0051
    -5.9266  -5.9255  -5.8069  -5.8068  -5.5711  -5.5702  -5.5449  -5.5442
    -4.0804  -4.0804  -3.9750  -3.9750  -3.9269  -3.9268  -3.9119  -3.9119
    -3.7537  -3.7536  -3.7138  -3.7137   5.8142   5.8157   5.9990   6.0002
     6.2986   6.2996   6.7887   6.7888   6.7952   6.7954   6.9382   6.9391
     7.2119   7.2120   7.3608   7.3612   7.6555   7.6558   8.0079   8.0084
     8.0479   8.0482   8.8335   8.8343   9.3689   9.3690   9.4834   9.4837
     9.5061   9.5070   9.7366   9.7369   9.8232   9.8233  10.2600  10.2610
    12.7851  12.7871  13.5156  13.5169  13.5231  13.5247  14.7193  14.7208
    14.7559  14.7577  15.1001  15.1022  16.6589  16.6612  17.2272  17.2273
    17.2548  17.2549  17.5284  17.5293  18.0257

          k = 0.0000 0.2992 0.3536 ( 18518 PWs)   bands (ev):

   -48.6972 -48.6969 -48.6948 -48.6894 -22.9892 -22.9868 -22.9840 -22.9818
   -22.9811 -22.9809 -22.9733 -22.9696 -22.9415 -22.9387 -22.9368 -22.9334
   -21.9540 -21.9540 -21.9392 -21.9392  -6.5605  -6.5596  -6.0659  -6.0655
    -5.8959  -5.8949  -5.8142  -5.8140  -5.5999  -5.5989  -5.5823  -5.5816
    -4.0642  -4.0641  -3.9750  -3.9750  -3.9361  -3.9360  -3.9090  -3.9089
    -3.7200  -3.7199  -3.6978  -3.6977   5.9811   5.9827   6.1161   6.1172
     6.4097   6.4107   6.7618   6.7618   6.8210   6.8210   6.9896   6.9904
     7.2144   7.2148   7.2476   7.2476   7.5368   7.5371   7.8631   7.8635
     7.8922   7.8925   8.6072   8.6083   9.4057   9.4060   9.4527   9.4536
     9.5986   9.5989   9.6987   9.6990   9.7958   9.7959  10.1822  10.1830
    13.0343  13.0363  13.5887  13.5901  13.6003  13.6019  14.5912  14.5928
    14.6361  14.6379  14.9222  14.9243  17.0121  17.0144  17.3772  17.3772
    17.4196  17.4197  17.6484  17.6491  18.1019

          k = 0.0000 0.3490 0.3536 ( 18536 PWs)   bands (ev):

   -48.6971 -48.6968 -48.6949 -48.6894 -22.9844 -22.9822 -22.9808 -22.9801
   -22.9786 -22.9758 -22.9738 -22.9700 -22.9473 -22.9445 -22.9422 -22.9388
   -21.9520 -21.9520 -21.9406 -21.9406  -6.5015  -6.5007  -6.1265  -6.1261
    -5.8616  -5.8606  -5.8147  -5.8145  -5.6325  -5.6315  -5.6270  -5.6264
    -4.0424  -4.0424  -3.9743  -3.9742  -3.9450  -3.9449  -3.9145  -3.9145
    -3.6913  -3.6912  -3.6798  -3.6797   6.1704   6.1719   6.2252   6.2261
     6.5349   6.5357   6.7229   6.7230   6.8811   6.8815   7.0511   7.0519
     7.0827   7.0832   7.2928   7.2929   7.3982   7.3988   7.7190   7.7195
     7.7248   7.7249   8.3491   8.3502   9.4432   9.4441   9.4531   9.4535
     9.6630   9.6634   9.6929   9.6931   9.7564   9.7565  10.1060  10.1066
    13.2882  13.2902  13.6801  13.6814  13.6958  13.6974  14.4532  14.4548
    14.5034  14.5052  14.7260  14.7281  17.3840  17.3861  17.5499  17.5499
    17.5896  17.5897  17.7520  17.7525  18.1141

          k = 0.0000 0.3989 0.3536 ( 18524 PWs)   bands (ev):

   -48.6970 -48.6968 -48.6950 -48.6895 -22.9801 -22.9798 -22.9785 -22.9777
   -22.9737 -22.9728 -22.9702 -22.9701 -22.9535 -22.9506 -22.9480 -22.9445
   -21.9499 -21.9499 -21.9422 -21.9421  -6.4391  -6.4383  -6.1874  -6.1869
    -5.8245  -5.8235  -5.8063  -5.8061  -5.6744  -5.6738  -5.6683  -5.6673
    -4.0177  -4.0177  -3.9726  -3.9726  -3.9531  -3.9531  -3.9271  -3.9271
    -3.6692  -3.6691  -3.6638  -3.6637   6.3260   6.3266   6.3775   6.3790
     6.6462   6.6468   6.6682   6.6683   6.9715   6.9722   6.9943   6.9950
     7.1234   7.1242   7.2328   7.2338   7.3560   7.3562   7.5631   7.5633
     7.5800   7.5805   8.0846   8.0857   9.4655   9.4663   9.4969   9.4973
     9.6301   9.6305   9.7035   9.7038   9.7751   9.7753  10.0358  10.0363
    13.5410  13.5429  13.7893  13.7906  13.8083  13.8100  14.3091  14.3106
    14.3620  14.3638  14.5154  14.5175  17.6881  17.6885  17.7581  17.7582
    17.8167  17.8184  17.8353  17.8357  18.0778

          k = 0.0000 0.4487 0.3536 ( 18524 PWs)   bands (ev):

   -48.6969 -48.6968 -48.6951 -48.6895 -22.9792 -22.9789 -22.9764 -22.9739
   -22.9702 -22.9698 -22.9667 -22.9643 -22.9597 -22.9565 -22.9541 -22.9504
   -21.9479 -21.9479 -21.9439 -21.9439  -6.3752  -6.3745  -6.2489  -6.2483
    -5.7876  -5.7873  -5.7856  -5.7845  -5.7195  -5.7191  -5.7064  -5.7054
    -3.9920  -3.9920  -3.9698  -3.9697  -3.9601  -3.9600  -3.9453  -3.9452
    -3.6552  -3.6551  -3.6530  -3.6529   6.4214   6.4218   6.5966   6.5966
     6.5969   6.5983   6.7317   6.7323   6.8813   6.8820   7.0372   7.0384
     7.1509   7.1517   7.2077   7.2084   7.4228   7.4234   7.4462   7.4467
     7.4540   7.4543   7.8311   7.8320   9.5118   9.5125   9.5348   9.5352
     9.5990   9.5994   9.6401   9.6406   9.8467   9.8468   9.9720   9.9723
    13.7859  13.7873  13.9175  13.9183  13.9353  13.9370  14.1611  14.1625
    14.2169  14.2187  14.2950  14.2969  17.8825  17.8826  17.9030  17.9032
    17.9193  17.9195  18.0240  18.0241  18.1790

          k = 0.0000 0.4986 0.3536 ( 18552 PWs)   bands (ev):

   -48.6969 -48.6968 -48.6951 -48.6895 -22.9790 -22.9785 -22.9765 -22.9721
   -22.9668 -22.9664 -22.9652 -22.9607 -22.9604 -22.9603 -22.9602 -22.9544
   -21.9459 -21.9458 -21.9458 -21.9458  -6.3118  -6.3112  -6.3112  -6.3105
    -5.7588  -5.7585  -5.7576  -5.7572  -5.7459  -5.7459  -5.7449  -5.7448
    -3.9674  -3.9674  -3.9673  -3.9673  -3.9657  -3.9656  -3.9656  -3.9656
    -3.6498  -3.6498  -3.6497  -3.6496   6.5121   6.5124   6.5126   6.5127
     6.8044   6.8046   6.8059   6.8069   6.8204   6.8205   6.8215   6.8222
     7.3058   7.3060   7.3064   7.3075   7.3077   7.3082   7.3085   7.3087
     7.6116   7.6118   7.6121   7.6127   9.5677   9.5682   9.5684   9.5688
     9.5730   9.5733   9.5736   9.5739   9.9105   9.9106   9.9110   9.9111
    13.9989  14.0000  14.0001  14.0018  14.0726  14.0727  14.0735  14.0769
    14.0805  14.0812  14.0818  14.0828  17.9652  17.9654  17.9655  17.9657
    18.0622  18.0622  18.0623  18.0626  18.0628

          k = 0.0500 0.4986 0.3536 ( 18552 PWs)   bands (ev):

   -48.6969 -48.6968 -48.6951 -48.6895 -22.9792 -22.9786 -22.9767 -22.9739
   -22.9704 -22.9698 -22.9692 -22.9675 -22.9557 -22.9554 -22.9531 -22.9511
   -21.9458 -21.9458 -21.9458 -21.9458  -6.3215  -6.3210  -6.3209  -6.3203
    -5.7617  -5.7613  -5.7605  -5.7601  -5.7355  -5.7355  -5.7345  -5.7345
    -3.9877  -3.9876  -3.9876  -3.9876  -3.9387  -3.9386  -3.9386  -3.9385
    -3.6505  -3.6504  -3.6504  -3.6503   6.4792   6.4797   6.4797   6.4800
     6.6910   6.6916   6.6917   6.6925   6.9336   6.9343   6.9345   6.9353
     7.2447   7.2449   7.2453   7.2459   7.3367   7.3368   7.3370   7.3373
     7.6921   7.6924   7.6926   7.6931   9.5263   9.5263   9.5264   9.5264
     9.5890   9.5892   9.5892   9.5894   9.9048   9.9048   9.9053   9.9054
    13.9397  13.9402  13.9405  13.9419  14.0777  14.0782  14.0786  14.0814
    14.1568  14.1570  14.1583  14.1587  17.9735  17.9737  17.9738  17.9740
    18.0324  18.0325  18.0326  18.0327  18.1119

          k = 0.1000 0.4986 0.3536 ( 18524 PWs)   bands (ev):

   -48.6969 -48.6968 -48.6951 -48.6895 -22.9804 -22.9796 -22.9791 -22.9786
   -22.9760 -22.9741 -22.9739 -22.9701 -22.9491 -22.9485 -22.9461 -22.9452
   -21.9457 -21.9457 -21.9456 -21.9456  -6.3481  -6.3476  -6.3475  -6.3469
    -5.7676  -5.7672  -5.7663  -5.7659  -5.7097  -5.7097  -5.7087  -5.7087
    -4.0009  -4.0009  -4.0009  -4.0009  -3.9058  -3.9057  -3.9057  -3.9057
    -3.6523  -3.6522  -3.6521  -3.6520   6.3670   6.3673   6.3679   6.3682
     6.6171   6.6172   6.6173   6.6178   7.0142   7.0149   7.0152   7.0160
     7.1816   7.1816   7.1823   7.1827   7.3770   7.3771   7.3773   7.3776
     7.8641   7.8642   7.8647   7.8649   9.4645   9.4645   9.4645   9.4645
     9.5700   9.5703   9.5704   9.5706   9.8934   9.8936   9.8939   9.8940
    13.8541  13.8547  13.8555  13.8563  14.1230  14.1236  14.1237  14.1270
    14.2587  14.2590  14.2605  14.2605  17.9283  17.9284  17.9293  17.9294
    18.0419  18.0419  18.0421  18.0422  18.1753

          k = 0.1500 0.4986 0.3536 ( 18504 PWs)   bands (ev):

   -48.6969 -48.6968 -48.6951 -48.6895 -22.9861 -22.9854 -22.9839 -22.9829
   -22.9777 -22.9770 -22.9749 -22.9701 -22.9427 -22.9420 -22.9394 -22.9390
   -21.9454 -21.9454 -21.9454 -21.9454  -6.3856  -6.3851  -6.3850  -6.3844
    -5.7757  -5.7754  -5.7745  -5.7741  -5.6745  -5.6744  -5.6734  -5.6734
    -4.0061  -4.0060  -4.0060  -4.0060  -3.8704  -3.8703  -3.8703  -3.8702
    -3.6547  -3.6546  -3.6546  -3.6545   6.2081   6.2082   6.2092   6.2095
     6.5740   6.5742   6.5743   6.5743   7.0137   7.0138   7.0152   7.0155
     7.1920   7.1925   7.1927   7.1931   7.4344   7.4345   7.4346   7.4348
     8.0681   8.0683   8.0688   8.0690   9.3909   9.3910   9.3911   9.3911
     9.5092   9.5095   9.5096   9.5098   9.8859   9.8862   9.8863   9.8865
    13.7725  13.7731  13.7740  13.7746  14.1927  14.1933  14.1934  14.1967
    14.3644  14.3648  14.3662  14.3663  17.7488  17.7490  17.7506  17.7506
    18.0793  18.0793  18.0795  18.0795  18.1758

          k = 0.2000 0.4986 0.3536 ( 18492 PWs)   bands (ev):

   -48.6969 -48.6968 -48.6951 -48.6895 -22.9923 -22.9915 -22.9898 -22.9889
   -22.9778 -22.9773 -22.9750 -22.9700 -22.9367 -22.9359 -22.9334 -22.9331
   -21.9452 -21.9452 -21.9451 -21.9451  -6.4278  -6.4273  -6.4272  -6.4266
    -5.7856  -5.7853  -5.7844  -5.7840  -5.6355  -5.6355  -5.6345  -5.6345
    -4.0034  -4.0034  -4.0033  -4.0033  -3.8356  -3.8356  -3.8355  -3.8355
    -3.6569  -3.6568  -3.6567  -3.6566   6.0439   6.0440   6.0451   6.0454
     6.5321   6.5322   6.5324   6.5326   6.9741   6.9741   6.9759   6.9761
     7.2517   7.2522   7.2524   7.2532   7.4994   7.4995   7.4995   7.4996
     8.2800   8.2801   8.2808   8.2809   9.3077   9.3077   9.3080   9.3082
     9.4179   9.4181   9.4181   9.4182   9.8842   9.8843   9.8845   9.8846
    13.6980  13.6985  13.6996  13.7000  14.2770  14.2777  14.2777  14.2811
    14.4690  14.4695  14.4708  14.4710  17.5175  17.5177  17.5194  17.5195
    18.1106  18.1106  18.1107  18.1108  18.2346

          k = 0.2500 0.4986 0.3536 ( 18520 PWs)   bands (ev):

   -48.6969 -48.6968 -48.6951 -48.6895 -22.9980 -22.9971 -22.9953 -22.9945
   -22.9777 -22.9772 -22.9749 -22.9698 -22.9313 -22.9306 -22.9280 -22.9279
   -21.9449 -21.9448 -21.9448 -21.9448  -6.4698  -6.4693  -6.4691  -6.4686
    -5.7964  -5.7961  -5.7952  -5.7948  -5.5975  -5.5975  -5.5965  -5.5965
    -3.9939  -3.9939  -3.9939  -3.9939  -3.8056  -3.8056  -3.8055  -3.8055
    -3.6569  -3.6569  -3.6567  -3.6567   5.8914   5.8915   5.8927   5.8930
     6.4853   6.4853   6.4857   6.4859   6.9410   6.9410   6.9430   6.9432
     7.3235   7.3239   7.3242   7.3251   7.5623   7.5625   7.5625   7.5625
     8.4831   8.4832   8.4838   8.4839   9.2089   9.2089   9.2097   9.2098
     9.3229   9.3229   9.3231   9.3231   9.8849   9.8850   9.8853   9.8853
    13.6319  13.6325  13.6336  13.6339  14.3662  14.3669  14.3669  14.3703
    14.5682  14.5686  14.5700  14.5702  17.2865  17.2867  17.2885  17.2886
    18.1447  18.1447  18.1448  18.1448  18.3213

          k = 0.3000 0.4986 0.3536 ( 18524 PWs)   bands (ev):

   -48.6969 -48.6968 -48.6951 -48.6895 -23.0029 -23.0020 -23.0001 -22.9994
   -22.9775 -22.9771 -22.9747 -22.9697 -22.9268 -22.9260 -22.9234 -22.9234
   -21.9445 -21.9445 -21.9445 -21.9445  -6.5080  -6.5075  -6.5073  -6.5068
    -5.8070  -5.8067  -5.8058  -5.8054  -5.5636  -5.5635  -5.5626  -5.5626
    -3.9795  -3.9795  -3.9794  -3.9794  -3.7848  -3.7848  -3.7847  -3.7847
    -3.6525  -3.6525  -3.6523  -3.6522   5.7589   5.7590   5.7602   5.7605
     6.4369   6.4370   6.4374   6.4376   6.9191   6.9192   6.9212   6.9215
     7.4018   7.4021   7.4026   7.4034   7.6172   7.6173   7.6173   7.6173
     8.6605   8.6606   8.6611   8.6612   9.0924   9.0924   9.0934   9.0935
     9.2504   9.2504   9.2507   9.2507   9.8858   9.8858   9.8862   9.8862
    13.5758  13.5763  13.5774  13.5777  14.4511  14.4518  14.4518  14.4553
    14.6574  14.6579  14.6592  14.6595  17.0750  17.0752  17.0770  17.0772
    18.1823  18.1823  18.1823  18.1823  18.4201

          k = 0.3500 0.4986 0.3536 ( 18516 PWs)   bands (ev):

   -48.6969 -48.6968 -48.6951 -48.6895 -23.0068 -23.0059 -23.0040 -23.0033
   -22.9774 -22.9769 -22.9746 -22.9695 -22.9231 -22.9224 -22.9198 -22.9197
   -21.9443 -21.9443 -21.9442 -21.9442  -6.5399  -6.5394  -6.5393  -6.5387
    -5.8165  -5.8161  -5.8153  -5.8148  -5.5358  -5.5357  -5.5348  -5.5348
    -3.9624  -3.9624  -3.9623  -3.9623  -3.7754  -3.7754  -3.7753  -3.7753
    -3.6429  -3.6429  -3.6427  -3.6426   5.6515   5.6515   5.6528   5.6531
     6.3925   6.3926   6.3931   6.3933   6.9058   6.9058   6.9079   6.9082
     7.4827   7.4830   7.4835   7.4844   7.6605   7.6606   7.6607   7.6607
     8.7825   8.7826   8.7830   8.7832   8.9885   8.9885   8.9893   8.9894
     9.2068   9.2069   9.2069   9.2070   9.8861   9.8862   9.8865   9.8865
    13.5307  13.5312  13.5323  13.5326  14.5242  14.5249  14.5249  14.5284
    14.7325  14.7330  14.7343  14.7346  16.8957  16.8959  16.8977  16.8979
    18.2191  18.2191  18.2192  18.2192  18.5235

          k = 0.4000 0.4986 0.3536 ( 18528 PWs)   bands (ev):

   -48.6969 -48.6968 -48.6951 -48.6895 -23.0097 -23.0088 -23.0069 -23.0062
   -22.9772 -22.9768 -22.9745 -22.9693 -22.9205 -22.9197 -22.9172 -22.9170
   -21.9441 -21.9440 -21.9440 -21.9440  -6.5638  -6.5633  -6.5632  -6.5626
    -5.8239  -5.8235  -5.8227  -5.8223  -5.5153  -5.5152  -5.5143  -5.5143
    -3.9457  -3.9457  -3.9456  -3.9456  -3.7750  -3.7750  -3.7749  -3.7748
    -3.6314  -3.6313  -3.6311  -3.6310   5.5726   5.5726   5.5739   5.5742
     6.3572   6.3573   6.3578   6.3580   6.8980   6.8981   6.9002   6.9006
     7.5586   7.5588   7.5594   7.5604   7.6906   7.6906   7.6907   7.6908
     8.7793   8.7793   8.7801   8.7802   8.9720   8.9721   8.9722   8.9722
     9.1943   9.1943   9.1947   9.1947   9.8859   9.8860   9.8863   9.8864
    13.4977  13.4982  13.4994  13.4997  14.5800  14.5806  14.5807  14.5842
    14.7893  14.7898  14.7912  14.7914  16.7589  16.7591  16.7609  16.7611
    18.2505  18.2505  18.2505  18.2505  18.6225

          k = 0.4500 0.4986 0.3536 ( 18544 PWs)   bands (ev):

   -48.6969 -48.6968 -48.6951 -48.6895 -23.0115 -23.0106 -23.0086 -23.0080
   -22.9771 -22.9767 -22.9744 -22.9693 -22.9189 -22.9181 -22.9156 -22.9154
   -21.9439 -21.9439 -21.9439 -21.9439  -6.5786  -6.5781  -6.5779  -6.5774
    -5.8286  -5.8282  -5.8274  -5.8270  -5.5027  -5.5027  -5.5018  -5.5017
    -3.9331  -3.9331  -3.9330  -3.9330  -3.7781  -3.7781  -3.7779  -3.7779
    -3.6224  -3.6223  -3.6221  -3.6220   5.5243   5.5243   5.5256   5.5259
     6.3345   6.3347   6.3352   6.3353   6.8941   6.8941   6.8962   6.8966
     7.6165   7.6168   7.6174   7.6184   7.7068   7.7068   7.7069   7.7069
     8.7174   8.7175   8.7184   8.7184   8.9932   8.9935   8.9938   8.9940
     9.2059   9.2060   9.2068   9.2069   9.8856   9.8857   9.8860   9.8860
    13.4777  13.4782  13.4794  13.4796  14.6147  14.6154  14.6155  14.6189
    14.8248  14.8253  14.8266  14.8269  16.6730  16.6732  16.6751  16.6753
    18.2717  18.2717  18.2717  18.2717  18.7042

          k = 0.5000 0.4986 0.3536 ( 18528 PWs)   bands (ev):

   -48.6969 -48.6968 -48.6951 -48.6895 -23.0121 -23.0112 -23.0092 -23.0086
   -22.9771 -22.9767 -22.9743 -22.9692 -22.9183 -22.9175 -22.9150 -22.9149
   -21.9439 -21.9438 -21.9438 -21.9438  -6.5836  -6.5831  -6.5829  -6.5824
    -5.8302  -5.8299  -5.8290  -5.8286  -5.4985  -5.4985  -5.4976  -5.4975
    -3.9283  -3.9283  -3.9282  -3.9282  -3.7798  -3.7798  -3.7797  -3.7796
    -3.6190  -3.6190  -3.6187  -3.6187   5.5081   5.5081   5.5094   5.5097
     6.3268   6.3269   6.3275   6.3276   6.8928   6.8929   6.8950   6.8954
     7.6394   7.6396   7.6402   7.6414   7.7110   7.7111   7.7112   7.7112
     8.6907   8.6908   8.6917   8.6918   8.9992   8.9995   9.0000   9.0003
     9.2149   9.2150   9.2159   9.2160   9.8854   9.8855   9.8858   9.8859
    13.4710  13.4715  13.4727  13.4729  14.6265  14.6272  14.6273  14.6307
    14.8369  14.8374  14.8387  14.8390  16.6438  16.6440  16.6458  16.6461
    18.2792  18.2792  18.2792  18.2793  18.7473

          k = 0.4500 0.4487 0.3536 ( 18522 PWs)   bands (ev):

   -48.6969 -48.6968 -48.6951 -48.6895 -23.0115 -23.0094 -23.0087 -23.0067
   -22.9772 -22.9768 -22.9744 -22.9693 -22.9201 -22.9179 -22.9170 -22.9150
   -21.9442 -21.9442 -21.9436 -21.9436  -6.5810  -6.5804  -6.5659  -6.5652
    -5.8314  -5.8311  -5.8214  -5.8210  -5.5160  -5.5151  -5.4977  -5.4968
    -3.9451  -3.9451  -3.9293  -3.9293  -3.7834  -3.7833  -3.7703  -3.7702
    -3.6270  -3.6270  -3.6238  -3.6238   5.5080   5.5095   5.5726   5.5741
     6.3334   6.3341   6.3512   6.3519   6.8936   6.8936   6.8992   6.8995
     7.5511   7.5524   7.6429   7.6440   7.6731   7.6732   7.7339   7.7340
     8.6900   8.6910   8.7927   8.7937   8.9495   8.9497   9.0071   9.0078
     9.1905   9.1909   9.2198   9.2208   9.8853   9.8857   9.8861   9.8865
    13.4678  13.4693  13.5017  13.5033  14.5683  14.5704  14.6384  14.6406
    14.7840  14.7857  14.8427  14.8444  16.6390  16.6411  16.7635  16.7655
    18.2299  18.2299  18.2996  18.2996  18.6654

          k = 0.4000 0.3989 0.3536 ( 18502 PWs)   bands (ev):

   -48.6969 -48.6968 -48.6951 -48.6895 -23.0107 -23.0080 -23.0033 -23.0006
   -22.9774 -22.9770 -22.9744 -22.9694 -22.9261 -22.9230 -22.9182 -22.9153
   -21.9454 -21.9454 -21.9430 -21.9430  -6.5756  -6.5749  -6.5150  -6.5143
    -5.8360  -5.8356  -5.7971  -5.7967  -5.5658  -5.5649  -5.4957  -5.4948
    -3.9833  -3.9833  -3.9325  -3.9324  -3.7934  -3.7933  -3.7532  -3.7531
    -3.6505  -3.6504  -3.6379  -3.6378   5.5079   5.5094   5.7593   5.7607
     6.3511   6.3517   6.4223   6.4229   6.8930   6.8931   6.9170   6.9172
     7.3569   7.3581   7.5682   7.5683   7.6580   7.6589   7.7954   7.7957
     8.6908   8.6916   8.7019   8.7025   9.0262   9.0273   9.0273   9.0279
     9.2305   9.2308   9.2350   9.2360   9.8826   9.8830   9.8891   9.8895
    13.4576  13.4591  13.5933  13.5949  14.3995  14.4016  14.6352  14.6369
    14.6738  14.6760  14.8590  14.8607  16.6234  16.6255  17.0898  17.0918
    18.1009  18.1009  18.3563  18.3564  18.5194

          k = 0.3500 0.3490 0.3536 ( 18518 PWs)   bands (ev):

   -48.6969 -48.6968 -48.6951 -48.6895 -23.0097 -23.0069 -22.9937 -22.9911
   -22.9777 -22.9775 -22.9743 -22.9695 -22.9354 -22.9324 -22.9186 -22.9156
   -21.9472 -21.9472 -21.9421 -21.9421  -6.5710  -6.5702  -6.4350  -6.4344
    -5.8412  -5.8409  -5.7583  -5.7579  -5.6397  -5.6388  -5.4933  -5.4924
    -4.0267  -4.0267  -3.9373  -3.9373  -3.8081  -3.8080  -3.7420  -3.7418
    -3.6867  -3.6867  -3.6590  -3.6589   5.5077   5.5092   6.0462   6.0475
     6.3725   6.3730   6.5320   6.5325   6.8911   6.8912   6.9590   6.9591
     7.1448   7.1458   7.4100   7.4101   7.6871   7.6879   7.8877   7.8881
     8.3104   8.3111   8.6999   8.7006   9.0536   9.0540   9.2622   9.2632
     9.2987   9.2997   9.3304   9.3308   9.8707   9.8711   9.8982   9.8985
    13.4403  13.4418  13.7433  13.7449  14.1394  14.1414  14.4179  14.4195
    14.7354  14.7375  14.8847  14.8864  16.5944  16.5964  17.5426  17.5445
    17.9236  17.9236  18.3109  18.3111  18.4130

          k = 0.3000 0.2992 0.3536 ( 18510 PWs)   bands (ev):

   -48.6970 -48.6968 -48.6950 -48.6894 -23.0083 -23.0056 -22.9827 -22.9817
   -22.9771 -22.9759 -22.9738 -22.9694 -22.9472 -22.9440 -22.9191 -22.9161
   -21.9496 -21.9496 -21.9409 -21.9409  -6.5735  -6.5727  -6.3330  -6.3324
    -5.8445  -5.8442  -5.7247  -5.7237  -5.7080  -5.7074  -5.4916  -5.4907
    -4.0655  -4.0655  -3.9434  -3.9434  -3.8269  -3.8268  -3.7424  -3.7422
    -3.7314  -3.7313  -3.6830  -3.6830   5.5074   5.5088   6.3831   6.3834
     6.3919   6.3930   6.6576   6.6577   6.8861   6.8862   6.9619   6.9626
     7.0587   7.0587   7.1923   7.1926   7.7273   7.7279   7.8943   7.8947
     8.0043   8.0047   8.7245   8.7249   9.0812   9.0814   9.3044   9.3054
     9.4467   9.4472   9.5546   9.5554   9.8391   9.8395   9.9244   9.9246
    13.4116  13.4130  13.8183  13.8201  13.9427  13.9443  14.1677  14.1693
    14.8245  14.8265  14.9190  14.9206  16.5476  16.5497  17.7206  17.7207
    18.0132  18.0148  18.0382  18.0384  18.3591

          k = 0.2500 0.2493 0.3536 ( 18532 PWs)   bands (ev):

   -48.6971 -48.6968 -48.6949 -48.6894 -23.0068 -23.0041 -22.9811 -22.9804
   -22.9735 -22.9700 -22.9659 -22.9648 -22.9601 -22.9560 -22.9196 -22.9166
   -21.9522 -21.9522 -21.9396 -21.9396  -6.5895  -6.5886  -6.2176  -6.2172
    -5.8486  -5.8483  -5.8005  -5.7997  -5.6510  -5.6504  -5.4915  -5.4906
    -4.0938  -4.0937  -3.9502  -3.9502  -3.8511  -3.8511  -3.7792  -3.7791
    -3.7554  -3.7553  -3.7050  -3.7049   5.5065   5.5080   6.3603   6.3605
     6.6902   6.6903   6.8050   6.8059   6.8389   6.8395   6.8416   6.8421
     6.9184   6.9185   7.2727   7.2728   7.5650   7.5651   7.7735   7.7741
     8.1360   8.1365   8.7683   8.7685   9.1131   9.1132   9.3655   9.3666
     9.5612   9.5616   9.7351   9.7355   9.7749   9.7753  10.0026  10.0030
    13.3152  13.3155  13.5222  13.5225  13.9208  13.9224  14.1765  14.1782
    14.9263  14.9264  14.9758  14.9762  16.4760  16.4781  17.5082  17.5083
    17.7291  17.7293  18.1380  18.1383  18.3149

          k = 0.2000 0.1994 0.3536 ( 18514 PWs)   bands (ev):

   -48.6972 -48.6969 -48.6948 -48.6894 -23.0054 -23.0027 -22.9822 -22.9813
   -22.9732 -22.9730 -22.9707 -22.9693 -22.9526 -22.9494 -22.9201 -22.9171
   -21.9548 -21.9548 -21.9383 -21.9383  -6.6212  -6.6203  -6.0986  -6.0982
    -5.8914  -5.8904  -5.8165  -5.8163  -5.5949  -5.5943  -5.4934  -5.4925
    -4.1081  -4.1081  -3.9569  -3.9569  -3.8811  -3.8811  -3.8236  -3.8235
    -3.7804  -3.7802  -3.7206  -3.7205   5.5042   5.5056   6.2942   6.2949
     6.4826   6.4839   6.7726   6.7727   6.7917   6.7920   6.8785   6.8788
     7.0921   7.0927   7.3592   7.3593   7.5935   7.5938   7.8204   7.8210
     8.2702   8.2706   8.8214   8.8216   9.1717   9.1723   9.4501   9.4512
     9.6640   9.6644   9.6674   9.6679   9.8098   9.8099  10.1482  10.1490
    12.9964  12.9983  13.4317  13.4329  13.7077  13.7092  14.4249  14.4266
    14.9771  14.9787  15.1062  15.1082  16.3664  16.3686  17.3021  17.3022
    17.4294  17.4295  17.8726  17.8733  18.1921

          k = 0.1500 0.1496 0.3536 ( 18512 PWs)   bands (ev):

   -48.6974 -48.6969 -48.6946 -48.6893 -23.0041 -23.0014 -22.9847 -22.9834
   -22.9822 -22.9820 -22.9724 -22.9689 -22.9402 -22.9372 -22.9206 -22.9175
   -21.9572 -21.9572 -21.9371 -21.9371  -6.6637  -6.6628  -5.9856  -5.9854
    -5.9413  -5.9403  -5.8008  -5.8006  -5.5487  -5.5480  -5.4969  -5.4960
    -4.1079  -4.1079  -3.9630  -3.9630  -3.9140  -3.9139  -3.8590  -3.8589
    -3.8142  -3.8140  -3.7295  -3.7294   5.4978   5.4993   6.1129   6.1142
     6.2107   6.2117   6.7887   6.7893   6.8044   6.8044   6.8609   6.8614
     7.2356   7.2356   7.3795   7.3798   7.8627   7.8633   7.9255   7.9259
     8.3915   8.3918   8.8501   8.8506   9.2924   9.2932   9.5234   9.5238
     9.5588   9.5599   9.7494   9.7497   9.8385   9.8388  10.2930  10.2940
    12.6318  12.6338  13.4047  13.4061  13.5474  13.5489  14.6645  14.6663
    15.0108  15.0125  15.2638  15.2659  16.2007  16.2029  17.1187  17.1187
    17.1683  17.1684  17.5534  17.5544  17.9713

          k = 0.1000 0.0997 0.3536 ( 18530 PWs)   bands (ev):

   -48.6975 -48.6970 -48.6945 -48.6893 -23.0031 -23.0005 -22.9938 -22.9910
   -22.9844 -22.9831 -22.9720 -22.9686 -22.9302 -22.9273 -22.9208 -22.9178
   -21.9592 -21.9592 -21.9361 -21.9361  -6.7060  -6.7051  -5.9758  -5.9747
    -5.8887  -5.8886  -5.7812  -5.7811  -5.5197  -5.5189  -5.5007  -5.4997
    -4.0957  -4.0957  -3.9678  -3.9678  -3.9437  -3.9437  -3.8826  -3.8824
    -3.8517  -3.8515  -3.7336  -3.7335   5.4800   5.4815   5.8272   5.8286
     6.1383   6.1394   6.8010   6.8017   6.8222   6.8223   6.8415   6.8421
     7.1633   7.1634   7.6432   7.6435   7.8962   7.8968   8.1999   8.2002
     8.4859   8.4861   8.8370   8.8377   9.2657   9.2661   9.5600   9.5609
     9.6810   9.6821   9.8130   9.8133   9.8540   9.8543  10.4009  10.4020
    12.3087  12.3109  13.3891  13.3905  13.4451  13.4465  14.8683  14.8701
    15.0362  15.0380  15.4119  15.4141  15.9806  15.9829  16.9546  16.9547
    16.9811  16.9811  17.3039  17.3051  17.7858

          k = 0.0500 0.0499 0.3536 ( 18528 PWs)   bands (ev):

   -48.6976 -48.6970 -48.6944 -48.6893 -23.0030 -23.0005 -22.9992 -22.9962
   -22.9850 -22.9837 -22.9718 -22.9684 -22.9242 -22.9214 -22.9207 -22.9175
   -21.9604 -21.9604 -21.9355 -21.9355  -6.7368  -6.7359  -5.9954  -5.9943
    -5.8200  -5.8199  -5.7658  -5.7657  -5.5095  -5.5086  -5.5025  -5.5016
    -4.0787  -4.0787  -3.9710  -3.9710  -3.9643  -3.9643  -3.8948  -3.8946
    -3.8843  -3.8841  -3.7352  -3.7351   5.4399   5.4415   5.6723   5.6736
     6.0912   6.0924   6.8114   6.8121   6.8264   6.8272   6.8319   6.8321
     7.1266   7.1268   7.8457   7.8462   7.9178   7.9184   8.4206   8.4207
     8.5446   8.5448   8.7904   8.7911   9.0691   9.0697   9.7460   9.7471
     9.7876   9.7887   9.8524   9.8527   9.8628   9.8631  10.4655  10.4666
    12.0782  12.0804  13.3797  13.3812  13.3932  13.3946  15.0074  15.0092
    15.0525  15.0543  15.5193  15.5215  15.7746  15.7770  16.8225  16.8226
    16.8875  16.8876  17.1708  17.1719  17.6623

          k = 0.0000 0.0000 0.3536 ( 18502 PWs)   bands (ev):

   -48.6976 -48.6970 -48.6944 -48.6892 -23.0035 -23.0010 -23.0004 -22.9974
   -22.9852 -22.9839 -22.9717 -22.9684 -22.9226 -22.9201 -22.9199 -22.9168
   -21.9609 -21.9608 -21.9353 -21.9353  -6.7479  -6.7470  -6.0017  -6.0006
    -5.7944  -5.7943  -5.7600  -5.7599  -5.5089  -5.5080  -5.5025  -5.5016
    -4.0700  -4.0700  -3.9730  -3.9730  -3.9709  -3.9709  -3.8987  -3.8985
    -3.8979  -3.8977  -3.7356  -3.7355   5.4118   5.4133   5.6333   5.6346
     6.0751   6.0763   6.8126   6.8134   6.8233   6.8241   6.8351   6.8352
     7.1155   7.1157   7.9200   7.9206   7.9297   7.9303   8.5616   8.5618
     8.5670   8.5672   8.7200   8.7207   8.9692   8.9701   9.8186   9.8198
     9.8381   9.8392   9.8657   9.8657   9.8660   9.8660  10.4868  10.4879
    11.9926  11.9948  13.3746  13.3762  13.3801  13.3815  15.0536  15.0555
    15.0617  15.0633  15.5588  15.5610  15.6890  15.6915  16.7767  16.7768
    16.8559  16.8560  17.1309  17.1321  17.6186

     Writing all to output data dir ./out/smo.save/ :
     XML data file, pseudopotentials, collected wavefunctions

     init_run     :      7.19s CPU      8.25s WALL (       1 calls)
     electrons    :    422.32s CPU    426.21s WALL (       1 calls)

     Called by init_run:
     wfcinit      :      0.00s CPU      0.00s WALL (       1 calls)
     wfcinit:atom :      0.11s CPU      0.22s WALL (       2 calls)
     wfcinit:wfcr :     11.26s CPU     11.49s WALL (       2 calls)
     potinit      :      3.28s CPU      3.98s WALL (       1 calls)
     hinit0       :      3.44s CPU      3.56s WALL (       1 calls)

     Called by electrons:
     c_bands      :    422.32s CPU    426.20s WALL (       1 calls)
     v_of_rho     :      2.13s CPU      2.73s WALL (       1 calls)
     v_h          :      0.07s CPU      0.09s WALL (       1 calls)
     v_xc         :      2.06s CPU      2.64s WALL (       1 calls)
     newd         :      0.26s CPU      0.26s WALL (       1 calls)
     PAW_pot      :      0.04s CPU      0.04s WALL (       1 calls)

     Called by c_bands:
     init_us_2    :      0.34s CPU      0.57s WALL (       2 calls)
     cegterg      :    386.33s CPU    389.59s WALL (      12 calls)

     Called by sum_band:

     Called by *egterg:
     cdiaghg      :      4.35s CPU      4.36s WALL (     241 calls)
     cegterg:over :     23.21s CPU     23.29s WALL (     239 calls)
     cegterg:upda :     17.59s CPU     17.93s WALL (     239 calls)
     cegterg:last :     41.17s CPU     41.39s WALL (      70 calls)
     h_psi        :    283.60s CPU    285.07s WALL (     253 calls)
     s_psi        :     18.34s CPU     18.35s WALL (     253 calls)
     g_psi        :      2.15s CPU      2.16s WALL (     239 calls)

     Called by h_psi:
     h_psi:calbec :     18.49s CPU     18.92s WALL (     253 calls)
     vloc_psi     :    243.79s CPU    244.09s WALL (     253 calls)
                                        0.00s GPU  (     253 calls)
     add_vuspsi   :     18.63s CPU     18.67s WALL (     253 calls)

     General routines
     calbec       :     18.49s CPU     18.92s WALL (     253 calls)
     fft          :      2.97s CPU      2.99s WALL (      13 calls)
     ffts         :      0.39s CPU      0.39s WALL (       1 calls)
     fftw         :    178.76s CPU    178.92s WALL (   15432 calls)
     interpolate  :      0.54s CPU      0.56s WALL (       1 calls)
     davcio       :      0.00s CPU      0.08s WALL (       4 calls)

     Parallel routines

     PAW routines
     PAW_pot      :      0.04s CPU      0.04s WALL (       1 calls)

     PWSCF        :   7m10.20s CPU   7m16.05s WALL


   This run was terminated on:  15:40:26   5Jun2025            

=------------------------------------------------------------------------------=
   JOB DONE.
=------------------------------------------------------------------------------=
