
     Program PWSCF v.7.4 starts on  5Jun2025 at 10:47: 7 
        Git branch: develop
        Last git commit: 621a13ae07f0aef1eb4ac4d6dc5b2414247e738f
        Last git commit date: Thu Dec 5 08:24:25 2024 +0000
        Last git commit subject: Merge branch 'wavefunction_module' into 'develop'

     This program is part of the open-source Quantum ESPRESSO suite
     for quantum simulation of materials; please cite
         "P. Giannozzi et al., J. Phys.:Condens. Matter 21 395502 (2009);
         "P. Giannozzi et al., J. Phys.:Condens. Matter 29 465901 (2017);
         "P. Giannozzi et al., J. Chem. Phys. 152 154105 (2020);
          URL http://www.quantum-espresso.org", 
     in publications or presentations arising from this work. More details at
     http://www.quantum-espresso.org/quote

     Parallel version (MPI), running on    64 processors

     MPI processes distributed on     1 nodes
     223568 MiB available memory on the printing compute node when the environment starts

     Waiting for input...
     Reading input from standard input

     Current dimensions of program PWSCF are:
     Max number of different atomic species (ntypx) = 10
     Max number of k-points (npk) =  40000
     Max angular momentum in pseudopotentials (lmaxx) =  4
     file O.pbesol-n-kjpaw_psl.0.1.UPF: wavefunction(s)  2P renormalized
     Found identity + (  0.0000  0.0000 -0.5000) symmetry
     This is a supercell, fractional translations are disabled
     Message from routine setup:
     using ibrav=0 with symmetry is DISCOURAGED, use correct ibrav instead

     K-points division:     npool     =      64
     Subspace diagonalization in iterative solution of the eigenvalue problem:
     a serial algorithm will be used

     Message from routine divide_et_impera:
     suboptimal parallelization: some nodes have no k-points

     G-vector sticks info
     --------------------
     sticks:   dense  smooth     PW     G-vecs:    dense   smooth      PW
     Sum        3577    1789    497               228283    80627   11835

     Using Slab Decomposition



     bravais-lattice index     =            0
     lattice parameter (alat)  =      10.5994  a.u.
     unit-cell volume          =    1688.5382 (a.u.)^3
     number of atoms/cell      =           20
     number of atomic types    =            3
     number of electrons       =       168.00
     number of Kohn-Sham states=          101
     kinetic-energy cutoff     =      50.0000  Ry
     charge density cutoff     =     400.0000  Ry
     scf convergence threshold =      4.0E-09
     mixing beta               =       0.4000
     number of iterations used =            8  plain     mixing
     Exchange-correlation= SLA  PW   PSX  PSC
                           (   1   4  10   8   0   0   0)

     celldm(1)=  10.599398  celldm(2)=   0.000000  celldm(3)=   0.000000
     celldm(4)=   0.000000  celldm(5)=   0.000000  celldm(6)=   0.000000

     crystal axes: (cart. coord. in units of alat)
               a(1) = (   1.000000   0.000000   0.000000 )  
               a(2) = (   0.000000   1.002817   0.000000 )  
               a(3) = (   0.000000   0.000000   1.413988 )  

     reciprocal axes: (cart. coord. in units 2 pi/alat)
               b(1) = (  1.000000  0.000000  0.000000 )  
               b(2) = (  0.000000  0.997191  0.000000 )  
               b(3) = (  0.000000  0.000000  0.707220 )  


     PseudoPot. # 1 for Mo read from file:
     ../pseudo/Mo_ONCV_PBEsol-1.0.upf
     MD5 check sum: 5193ba6a20874d27c2ef80314d1b3445
     Pseudo is Norm-conserving, Zval = 14.0
     Generated using ONCVPSP code by D. R. Hamann
     Using radial grid of 1508 points,  6 beta functions with: 
                l(1) =   0
                l(2) =   0
                l(3) =   1
                l(4) =   1
                l(5) =   2
                l(6) =   2

     PseudoPot. # 2 for O  read from file:
     ../pseudo/O.pbesol-n-kjpaw_psl.0.1.UPF
     MD5 check sum: 81d73d1479e654e5638b0319f0d6c2c7
     Pseudo is Projector augmented-wave + core cor, Zval =  6.0
     Generated using "atomic" code by A. Dal Corso  v.6.0 svn rev. 13079
     Shape of augmentation charge: BESSEL
     Using radial grid of 1095 points,  4 beta functions with: 
                l(1) =   0
                l(2) =   0
                l(3) =   1
                l(4) =   1
     Q(r) pseudized with 0 coefficients 


     PseudoPot. # 3 for Sr read from file:
     ../pseudo/sr_pbesol_v1.uspp.F.UPF
     MD5 check sum: 635bff1625df5273dba4129a01ed8c82
     Pseudo is Ultrasoft + core correction, Zval = 10.0
     Generated by new atomic code, or converted to UPF format
     Using radial grid of  883 points,  6 beta functions with: 
                l(1) =   0
                l(2) =   0
                l(3) =   1
                l(4) =   1
                l(5) =   2
                l(6) =   2
     Q(r) pseudized with  6 coefficients,  rinner =    1.400   1.400   1.400
                                                       1.400   1.400

     atomic species   valence    mass     pseudopotential
     Mo               14.00    95.96000     Mo( 1.00)
     O                 6.00    15.99940     O ( 1.00)
     Sr               10.00    87.62000     Sr( 1.00)

      8 Sym. Ops., with inversion, found


                                    s                        frac. trans.

      isym =  1     identity                                     

 cryst.   s( 1) = (     1          0          0      )
                  (     0          1          0      )
                  (     0          0          1      )

 cart.    s( 1) = (  1.0000000  0.0000000  0.0000000 )
                  (  0.0000000  1.0000000  0.0000000 )
                  (  0.0000000  0.0000000  1.0000000 )


      isym =  2     180 deg rotation - cart. axis [0,0,1]        

 cryst.   s( 2) = (    -1          0          0      )
                  (     0         -1          0      )
                  (     0          0          1      )

 cart.    s( 2) = ( -1.0000000  0.0000000  0.0000000 )
                  (  0.0000000 -1.0000000  0.0000000 )
                  (  0.0000000  0.0000000  1.0000000 )


      isym =  3     180 deg rotation - cart. axis [0,1,0]        

 cryst.   s( 3) = (    -1          0          0      )
                  (     0          1          0      )
                  (     0          0         -1      )

 cart.    s( 3) = ( -1.0000000  0.0000000  0.0000000 )
                  (  0.0000000  1.0000000  0.0000000 )
                  (  0.0000000  0.0000000 -1.0000000 )


      isym =  4     180 deg rotation - cart. axis [1,0,0]        

 cryst.   s( 4) = (     1          0          0      )
                  (     0         -1          0      )
                  (     0          0         -1      )

 cart.    s( 4) = (  1.0000000  0.0000000  0.0000000 )
                  (  0.0000000 -1.0000000  0.0000000 )
                  (  0.0000000  0.0000000 -1.0000000 )


      isym =  5     inversion                                    

 cryst.   s( 5) = (    -1          0          0      )
                  (     0         -1          0      )
                  (     0          0         -1      )

 cart.    s( 5) = ( -1.0000000  0.0000000  0.0000000 )
                  (  0.0000000 -1.0000000  0.0000000 )
                  (  0.0000000  0.0000000 -1.0000000 )


      isym =  6     inv. 180 deg rotation - cart. axis [0,0,1]   

 cryst.   s( 6) = (     1          0          0      )
                  (     0          1          0      )
                  (     0          0         -1      )

 cart.    s( 6) = (  1.0000000  0.0000000  0.0000000 )
                  (  0.0000000  1.0000000  0.0000000 )
                  (  0.0000000  0.0000000 -1.0000000 )


      isym =  7     inv. 180 deg rotation - cart. axis [0,1,0]   

 cryst.   s( 7) = (     1          0          0      )
                  (     0         -1          0      )
                  (     0          0          1      )

 cart.    s( 7) = (  1.0000000  0.0000000  0.0000000 )
                  (  0.0000000 -1.0000000  0.0000000 )
                  (  0.0000000  0.0000000  1.0000000 )


      isym =  8     inv. 180 deg rotation - cart. axis [1,0,0]   

 cryst.   s( 8) = (    -1          0          0      )
                  (     0          1          0      )
                  (     0          0          1      )

 cart.    s( 8) = ( -1.0000000  0.0000000  0.0000000 )
                  (  0.0000000  1.0000000  0.0000000 )
                  (  0.0000000  0.0000000  1.0000000 )


   Cartesian axes

     site n.     atom                  positions (alat units)
         1        Sr     tau(   1) = (   0.0000000   0.5014085   0.3534969  )
         2        Sr     tau(   2) = (   0.0000000   0.5014085   1.0604907  )
         3        Sr     tau(   3) = (   0.5000000   0.0000000   1.0604907  )
         4        Sr     tau(   4) = (   0.5000000   0.0000000   0.3534969  )
         5        Mo     tau(   5) = (   0.0000000   0.0000000   0.0000000  )
         6        Mo     tau(   6) = (   0.0000000   0.0000000   0.7069938  )
         7        Mo     tau(   7) = (   0.5000000   0.5014085   0.7069938  )
         8        Mo     tau(   8) = (   0.5000000   0.5014085   0.0000000  )
         9        O      tau(   9) = (   0.2500000   0.7521127   0.0000000  )
        10        O      tau(  10) = (   0.2500000   0.2507042   0.0000000  )
        11        O      tau(  11) = (   0.7500000   0.2507042   0.7069938  )
        12        O      tau(  12) = (   0.7500000   0.7521127   0.7069938  )
        13        O      tau(  13) = (   0.7500000   0.2507042   0.0000000  )
        14        O      tau(  14) = (   0.7500000   0.7521127   0.0000000  )
        15        O      tau(  15) = (   0.2500000   0.7521127   0.7069938  )
        16        O      tau(  16) = (   0.2500000   0.2507042   0.7069938  )
        17        O      tau(  17) = (   0.0000000   0.0000000   0.3534969  )
        18        O      tau(  18) = (   0.0000000   0.0000000   1.0604907  )
        19        O      tau(  19) = (   0.5000000   0.5014085   1.0604907  )
        20        O      tau(  20) = (   0.5000000   0.5014085   0.3534969  )

   Crystallographic axes

     site n.     atom                  positions (cryst. coord.)
         1        Sr     tau(   1) = (  0.0000000  0.5000000  0.2500000  )
         2        Sr     tau(   2) = (  0.0000000  0.5000000  0.7500000  )
         3        Sr     tau(   3) = (  0.5000000  0.0000000  0.7500000  )
         4        Sr     tau(   4) = (  0.5000000  0.0000000  0.2500000  )
         5        Mo     tau(   5) = (  0.0000000  0.0000000  0.0000000  )
         6        Mo     tau(   6) = (  0.0000000  0.0000000  0.5000000  )
         7        Mo     tau(   7) = (  0.5000000  0.5000000  0.5000000  )
         8        Mo     tau(   8) = (  0.5000000  0.5000000  0.0000000  )
         9        O      tau(   9) = (  0.2500000  0.7500000  0.0000000  )
        10        O      tau(  10) = (  0.2500000  0.2500000  0.0000000  )
        11        O      tau(  11) = (  0.7500000  0.2500000  0.5000000  )
        12        O      tau(  12) = (  0.7500000  0.7500000  0.5000000  )
        13        O      tau(  13) = (  0.7500000  0.2500000  0.0000000  )
        14        O      tau(  14) = (  0.7500000  0.7500000  0.0000000  )
        15        O      tau(  15) = (  0.2500000  0.7500000  0.5000000  )
        16        O      tau(  16) = (  0.2500000  0.2500000  0.5000000  )
        17        O      tau(  17) = (  0.0000000  0.0000000  0.2500000  )
        18        O      tau(  18) = (  0.0000000  0.0000000  0.7500000  )
        19        O      tau(  19) = (  0.5000000  0.5000000  0.7500000  )
        20        O      tau(  20) = (  0.5000000  0.5000000  0.2500000  )

     number of k points=    27  Fermi-Dirac smearing, width (Ry)=  0.0015
                       cart. coord. in units 2pi/alat
        k(    1) = (   0.0000000   0.0000000   0.0000000), wk =   0.0160000
        k(    2) = (   0.0000000   0.0000000   0.1414440), wk =   0.0320000
        k(    3) = (   0.0000000   0.0000000   0.2828879), wk =   0.0320000
        k(    4) = (   0.0000000   0.1994382   0.0000000), wk =   0.0320000
        k(    5) = (   0.0000000   0.1994382   0.1414440), wk =   0.0640000
        k(    6) = (   0.0000000   0.1994382   0.2828879), wk =   0.0640000
        k(    7) = (   0.0000000   0.3988764   0.0000000), wk =   0.0320000
        k(    8) = (   0.0000000   0.3988764   0.1414440), wk =   0.0640000
        k(    9) = (   0.0000000   0.3988764   0.2828879), wk =   0.0640000
        k(   10) = (   0.2000000   0.0000000   0.0000000), wk =   0.0320000
        k(   11) = (   0.2000000   0.0000000   0.1414440), wk =   0.0640000
        k(   12) = (   0.2000000   0.0000000   0.2828879), wk =   0.0640000
        k(   13) = (   0.2000000   0.1994382   0.0000000), wk =   0.0640000
        k(   14) = (   0.2000000   0.1994382   0.1414440), wk =   0.1280000
        k(   15) = (   0.2000000   0.1994382   0.2828879), wk =   0.1280000
        k(   16) = (   0.2000000   0.3988764   0.0000000), wk =   0.0640000
        k(   17) = (   0.2000000   0.3988764   0.1414440), wk =   0.1280000
        k(   18) = (   0.2000000   0.3988764   0.2828879), wk =   0.1280000
        k(   19) = (   0.4000000   0.0000000   0.0000000), wk =   0.0320000
        k(   20) = (   0.4000000   0.0000000   0.1414440), wk =   0.0640000
        k(   21) = (   0.4000000   0.0000000   0.2828879), wk =   0.0640000
        k(   22) = (   0.4000000   0.1994382   0.0000000), wk =   0.0640000
        k(   23) = (   0.4000000   0.1994382   0.1414440), wk =   0.1280000
        k(   24) = (   0.4000000   0.1994382   0.2828879), wk =   0.1280000
        k(   25) = (   0.4000000   0.3988764   0.0000000), wk =   0.0640000
        k(   26) = (   0.4000000   0.3988764   0.1414440), wk =   0.1280000
        k(   27) = (   0.4000000   0.3988764   0.2828879), wk =   0.1280000

                       cryst. coord.
        k(    1) = (   0.0000000   0.0000000   0.0000000), wk =   0.0160000
        k(    2) = (   0.0000000   0.0000000   0.2000000), wk =   0.0320000
        k(    3) = (   0.0000000   0.0000000   0.4000000), wk =   0.0320000
        k(    4) = (   0.0000000   0.2000000   0.0000000), wk =   0.0320000
        k(    5) = (   0.0000000   0.2000000   0.2000000), wk =   0.0640000
        k(    6) = (   0.0000000   0.2000000   0.4000000), wk =   0.0640000
        k(    7) = (   0.0000000   0.4000000   0.0000000), wk =   0.0320000
        k(    8) = (   0.0000000   0.4000000   0.2000000), wk =   0.0640000
        k(    9) = (   0.0000000   0.4000000   0.4000000), wk =   0.0640000
        k(   10) = (   0.2000000   0.0000000   0.0000000), wk =   0.0320000
        k(   11) = (   0.2000000   0.0000000   0.2000000), wk =   0.0640000
        k(   12) = (   0.2000000   0.0000000   0.4000000), wk =   0.0640000
        k(   13) = (   0.2000000   0.2000000   0.0000000), wk =   0.0640000
        k(   14) = (   0.2000000   0.2000000   0.2000000), wk =   0.1280000
        k(   15) = (   0.2000000   0.2000000   0.4000000), wk =   0.1280000
        k(   16) = (   0.2000000   0.4000000   0.0000000), wk =   0.0640000
        k(   17) = (   0.2000000   0.4000000   0.2000000), wk =   0.1280000
        k(   18) = (   0.2000000   0.4000000   0.4000000), wk =   0.1280000
        k(   19) = (   0.4000000   0.0000000   0.0000000), wk =   0.0320000
        k(   20) = (   0.4000000   0.0000000   0.2000000), wk =   0.0640000
        k(   21) = (   0.4000000   0.0000000   0.4000000), wk =   0.0640000
        k(   22) = (   0.4000000   0.2000000   0.0000000), wk =   0.0640000
        k(   23) = (   0.4000000   0.2000000   0.2000000), wk =   0.1280000
        k(   24) = (   0.4000000   0.2000000   0.4000000), wk =   0.1280000
        k(   25) = (   0.4000000   0.4000000   0.0000000), wk =   0.0640000
        k(   26) = (   0.4000000   0.4000000   0.2000000), wk =   0.1280000
        k(   27) = (   0.4000000   0.4000000   0.4000000), wk =   0.1280000

     Dense  grid:   228283 G-vectors     FFT dimensions: (  72,  72,  96)

     Smooth grid:    80627 G-vectors     FFT dimensions: (  48,  48,  72)

     Dynamical RAM for                 wfc:      15.54 MB

     Dynamical RAM for     wfc (w. buffer):      15.54 MB

     Dynamical RAM for           str. fact:      10.45 MB

     Dynamical RAM for           local pot:       0.00 MB

     Dynamical RAM for          nlocal pot:      36.92 MB

     Dynamical RAM for                qrad:       4.82 MB

     Dynamical RAM for          rho,v,vnew:      21.84 MB

     Dynamical RAM for               rhoin:       7.28 MB

     Dynamical RAM for            rho*nmix:      55.73 MB

     Dynamical RAM for           G-vectors:      13.68 MB

     Dynamical RAM for          h,s,v(r/c):       1.87 MB

     Dynamical RAM for          <psi|beta>:       0.37 MB

     Dynamical RAM for                 psi:      31.07 MB

     Dynamical RAM for                hpsi:      31.07 MB

     Dynamical RAM for                spsi:      31.07 MB

     Dynamical RAM for      wfcinit/wfcrot:      31.31 MB

     Dynamical RAM for           addusdens:      14.20 MB

     Dynamical RAM for          addusforce:      13.76 MB

     Dynamical RAM for         addusstress:      12.65 MB

     Estimated static dynamical RAM per process >     143.44 MB

     Estimated max dynamical RAM per process >     294.62 MB

     Estimated total dynamical RAM >      14.99 GB

     Check: negative core charge=   -0.000003

     Initial potential from superposition of free atoms

     starting charge     167.8733, renormalised to     168.0000

     negative rho (up, down):  2.512E-01 0.000E+00
     Starting wfcs are  140 randomized atomic wfcs
     Checking if some PAW data can be deallocated... 
       PAW data deallocated on   28 nodes for type:  2

     total cpu time spent up to now is        6.7 secs

     per-process dynamical memory:   183.6 Mb

     Self-consistent Calculation

     iteration #  1     ecut=    50.00 Ry     beta= 0.40
     Davidson diagonalization with overlap

---- Real-time Memory Report at c_bands before calling an iterative solver
           206 MiB given to the printing process from OS
           179 MiB allocation reported by mallinfo(arena+hblkhd)
        212927 MiB available memory on the node where the printing process lives
------------------
     ethr =  1.00E-02,  avg # of iterations =  2.0

     negative rho (up, down):  2.522E-01 0.000E+00

     total cpu time spent up to now is       12.7 secs

     total energy              =   -1323.21387298 Ry
     estimated scf accuracy    <       4.85018224 Ry

     iteration #  2     ecut=    50.00 Ry     beta= 0.40
     Davidson diagonalization with overlap

---- Real-time Memory Report at c_bands before calling an iterative solver
           278 MiB given to the printing process from OS
           232 MiB allocation reported by mallinfo(arena+hblkhd)
        212060 MiB available memory on the node where the printing process lives
------------------
     ethr =  2.89E-03,  avg # of iterations =  4.0

     negative rho (up, down):  2.545E-01 0.000E+00

     total cpu time spent up to now is       19.3 secs

     total energy              =   -1324.49282245 Ry
     estimated scf accuracy    <       1.05782502 Ry

     iteration #  3     ecut=    50.00 Ry     beta= 0.40
     Davidson diagonalization with overlap

---- Real-time Memory Report at c_bands before calling an iterative solver
           288 MiB given to the printing process from OS
           235 MiB allocation reported by mallinfo(arena+hblkhd)
        213515 MiB available memory on the node where the printing process lives
------------------
     ethr =  6.30E-04,  avg # of iterations =  3.7

     negative rho (up, down):  2.578E-01 0.000E+00

     total cpu time spent up to now is       25.5 secs

     total energy              =   -1324.67218332 Ry
     estimated scf accuracy    <       0.05966515 Ry

     iteration #  4     ecut=    50.00 Ry     beta= 0.40
     Davidson diagonalization with overlap

---- Real-time Memory Report at c_bands before calling an iterative solver
           291 MiB given to the printing process from OS
           237 MiB allocation reported by mallinfo(arena+hblkhd)
        213103 MiB available memory on the node where the printing process lives
------------------
     ethr =  3.55E-05,  avg # of iterations = 10.9

     negative rho (up, down):  2.582E-01 0.000E+00

     total cpu time spent up to now is       33.2 secs

     total energy              =   -1324.65749401 Ry
     estimated scf accuracy    <       0.28670111 Ry

     iteration #  5     ecut=    50.00 Ry     beta= 0.40
     Davidson diagonalization with overlap

---- Real-time Memory Report at c_bands before calling an iterative solver
           294 MiB given to the printing process from OS
           240 MiB allocation reported by mallinfo(arena+hblkhd)
        213497 MiB available memory on the node where the printing process lives
------------------
     ethr =  3.55E-05,  avg # of iterations =  3.7

     negative rho (up, down):  2.609E-01 0.000E+00

     total cpu time spent up to now is       39.1 secs

     total energy              =   -1324.67186590 Ry
     estimated scf accuracy    <       0.14713195 Ry

     iteration #  6     ecut=    50.00 Ry     beta= 0.40
     Davidson diagonalization with overlap

---- Real-time Memory Report at c_bands before calling an iterative solver
           295 MiB given to the printing process from OS
           242 MiB allocation reported by mallinfo(arena+hblkhd)
        213141 MiB available memory on the node where the printing process lives
------------------
     ethr =  3.55E-05,  avg # of iterations =  1.0

     negative rho (up, down):  2.610E-01 0.000E+00

     total cpu time spent up to now is       44.6 secs

     total energy              =   -1324.67732431 Ry
     estimated scf accuracy    <       0.01892689 Ry

     iteration #  7     ecut=    50.00 Ry     beta= 0.40
     Davidson diagonalization with overlap

---- Real-time Memory Report at c_bands before calling an iterative solver
           298 MiB given to the printing process from OS
           245 MiB allocation reported by mallinfo(arena+hblkhd)
        213194 MiB available memory on the node where the printing process lives
------------------
     ethr =  1.13E-05,  avg # of iterations =  1.4

     negative rho (up, down):  2.611E-01 0.000E+00

     total cpu time spent up to now is       50.3 secs

     total energy              =   -1324.67795484 Ry
     estimated scf accuracy    <       0.00498824 Ry

     iteration #  8     ecut=    50.00 Ry     beta= 0.40
     Davidson diagonalization with overlap

---- Real-time Memory Report at c_bands before calling an iterative solver
           301 MiB given to the printing process from OS
           247 MiB allocation reported by mallinfo(arena+hblkhd)
        213182 MiB available memory on the node where the printing process lives
------------------
     c_bands:  1 eigenvalues not converged
     ethr =  2.97E-06,  avg # of iterations =  7.1

     negative rho (up, down):  2.611E-01 0.000E+00

     total cpu time spent up to now is       56.9 secs

     total energy              =   -1324.67815236 Ry
     estimated scf accuracy    <       0.00177477 Ry

     iteration #  9     ecut=    50.00 Ry     beta= 0.40
     Davidson diagonalization with overlap

---- Real-time Memory Report at c_bands before calling an iterative solver
           304 MiB given to the printing process from OS
           250 MiB allocation reported by mallinfo(arena+hblkhd)
        213149 MiB available memory on the node where the printing process lives
------------------
     ethr =  1.06E-06,  avg # of iterations =  4.3

     negative rho (up, down):  2.610E-01 0.000E+00

     total cpu time spent up to now is       63.3 secs

     total energy              =   -1324.67819637 Ry
     estimated scf accuracy    <       0.00210009 Ry

     iteration # 10     ecut=    50.00 Ry     beta= 0.40
     Davidson diagonalization with overlap

---- Real-time Memory Report at c_bands before calling an iterative solver
           305 MiB given to the printing process from OS
           253 MiB allocation reported by mallinfo(arena+hblkhd)
        213307 MiB available memory on the node where the printing process lives
------------------
     ethr =  1.06E-06,  avg # of iterations =  2.0

     negative rho (up, down):  2.609E-01 0.000E+00

     total cpu time spent up to now is       69.6 secs

     total energy              =   -1324.67830012 Ry
     estimated scf accuracy    <       0.00002609 Ry

     iteration # 11     ecut=    50.00 Ry     beta= 0.40
     Davidson diagonalization with overlap

---- Real-time Memory Report at c_bands before calling an iterative solver
           308 MiB given to the printing process from OS
           253 MiB allocation reported by mallinfo(arena+hblkhd)
        213197 MiB available memory on the node where the printing process lives
------------------
     ethr =  1.55E-08,  avg # of iterations =  3.7

     negative rho (up, down):  2.609E-01 0.000E+00

     total cpu time spent up to now is       76.0 secs

     total energy              =   -1324.67830371 Ry
     estimated scf accuracy    <       0.00001787 Ry

     iteration # 12     ecut=    50.00 Ry     beta= 0.40
     Davidson diagonalization with overlap

---- Real-time Memory Report at c_bands before calling an iterative solver
           308 MiB given to the printing process from OS
           253 MiB allocation reported by mallinfo(arena+hblkhd)
        213212 MiB available memory on the node where the printing process lives
------------------
     ethr =  1.06E-08,  avg # of iterations =  1.9

     negative rho (up, down):  2.608E-01 0.000E+00

     total cpu time spent up to now is       81.6 secs

     total energy              =   -1324.67830420 Ry
     estimated scf accuracy    <       0.00000793 Ry

     iteration # 13     ecut=    50.00 Ry     beta= 0.40
     Davidson diagonalization with overlap

---- Real-time Memory Report at c_bands before calling an iterative solver
           308 MiB given to the printing process from OS
           253 MiB allocation reported by mallinfo(arena+hblkhd)
        213175 MiB available memory on the node where the printing process lives
------------------
     ethr =  4.72E-09,  avg # of iterations =  2.0

     negative rho (up, down):  2.608E-01 0.000E+00

     total cpu time spent up to now is       87.4 secs

     total energy              =   -1324.67830467 Ry
     estimated scf accuracy    <       0.00000098 Ry

     iteration # 14     ecut=    50.00 Ry     beta= 0.40
     Davidson diagonalization with overlap

---- Real-time Memory Report at c_bands before calling an iterative solver
           308 MiB given to the printing process from OS
           253 MiB allocation reported by mallinfo(arena+hblkhd)
        213374 MiB available memory on the node where the printing process lives
------------------
     ethr =  5.81E-10,  avg # of iterations =  3.3

     negative rho (up, down):  2.607E-01 0.000E+00

     total cpu time spent up to now is       93.4 secs

     total energy              =   -1324.67830478 Ry
     estimated scf accuracy    <       0.00000007 Ry

     iteration # 15     ecut=    50.00 Ry     beta= 0.40
     Davidson diagonalization with overlap

---- Real-time Memory Report at c_bands before calling an iterative solver
           308 MiB given to the printing process from OS
           253 MiB allocation reported by mallinfo(arena+hblkhd)
        213223 MiB available memory on the node where the printing process lives
------------------
     ethr =  3.91E-11,  avg # of iterations =  4.3

     negative rho (up, down):  2.607E-01 0.000E+00

     total cpu time spent up to now is      100.5 secs

     total energy              =   -1324.67830480 Ry
     estimated scf accuracy    <       0.00000006 Ry

     iteration # 16     ecut=    50.00 Ry     beta= 0.40
     Davidson diagonalization with overlap

---- Real-time Memory Report at c_bands before calling an iterative solver
           308 MiB given to the printing process from OS
           253 MiB allocation reported by mallinfo(arena+hblkhd)
        213415 MiB available memory on the node where the printing process lives
------------------
     ethr =  3.85E-11,  avg # of iterations =  1.5

     negative rho (up, down):  2.607E-01 0.000E+00

     total cpu time spent up to now is      106.2 secs

     total energy              =   -1324.67830480 Ry
     estimated scf accuracy    <       0.00000003 Ry

     iteration # 17     ecut=    50.00 Ry     beta= 0.40
     Davidson diagonalization with overlap

---- Real-time Memory Report at c_bands before calling an iterative solver
           308 MiB given to the printing process from OS
           253 MiB allocation reported by mallinfo(arena+hblkhd)
        213253 MiB available memory on the node where the printing process lives
------------------
     ethr =  1.60E-11,  avg # of iterations =  1.0

     negative rho (up, down):  2.607E-01 0.000E+00

     total cpu time spent up to now is      111.6 secs

     total energy              =   -1324.67830480 Ry
     estimated scf accuracy    <          9.5E-09 Ry

     iteration # 18     ecut=    50.00 Ry     beta= 0.40
     Davidson diagonalization with overlap

---- Real-time Memory Report at c_bands before calling an iterative solver
           308 MiB given to the printing process from OS
           253 MiB allocation reported by mallinfo(arena+hblkhd)
        213271 MiB available memory on the node where the printing process lives
------------------
     ethr =  5.68E-12,  avg # of iterations =  2.7

     negative rho (up, down):  2.607E-01 0.000E+00

     total cpu time spent up to now is      117.9 secs

     End of self-consistent calculation

          k = 0.0000 0.0000 0.0000 ( 10061 PWs)   bands (ev):

   -48.7074 -48.7060 -48.7047 -48.7033 -23.0416 -23.0227 -23.0113 -23.0081
   -23.0071 -23.0038 -22.9442 -22.9375 -22.9301 -22.9274 -22.9266 -22.9238
   -21.9801 -21.9474 -21.9454 -21.9300  -6.9044  -6.6993  -6.2661  -6.0437
    -6.0272  -5.9936  -5.6922  -5.6856  -5.3037  -5.2744  -5.2656  -5.2592
    -4.2351  -4.2344  -4.2342  -3.9931  -3.9913  -3.9878  -3.9575  -3.9551
    -3.9002  -3.6453  -3.6440  -3.5234   5.3915   5.4017   5.4185   5.4891
     5.6147   5.6683   5.8514   6.4488   6.4608   6.4773   7.4172   7.4259
     7.8313   7.8348   7.9942   8.0056   8.0244   8.0349   8.0355   8.0991
     8.6205   8.9550   8.9584   9.0036   9.3482   9.3597   9.3611   9.7259
     9.7468  10.0154  10.0172  10.0267  10.4393  10.5107  10.5140  10.5175
    11.8848  11.8927  11.8947  12.0986  14.6191  14.6208  14.6262  14.6334
    15.4035  15.6794  15.6897  15.6929  15.7034  15.7036  15.7087  15.9498
    15.9597  16.1835  16.8607  17.3178  17.3383

     occupation numbers 
     1.0000   1.0000   1.0000   1.0000   1.0000   1.0000   1.0000   1.0000
     1.0000   1.0000   1.0000   1.0000   1.0000   1.0000   1.0000   1.0000
     1.0000   1.0000   1.0000   1.0000   1.0000   1.0000   1.0000   1.0000
     1.0000   1.0000   1.0000   1.0000   1.0000   1.0000   1.0000   1.0000
     1.0000   1.0000   1.0000   1.0000   1.0000   1.0000   1.0000   1.0000
     1.0000   1.0000   1.0000   1.0000   1.0000   1.0000   1.0000   1.0000
     1.0000   1.0000   1.0000   1.0000   1.0000   1.0000   1.0000   1.0000
     1.0000   1.0000   1.0000   1.0000   1.0000   1.0000   1.0000   1.0000
     1.0000   1.0000   1.0000   1.0000   1.0000   1.0000   1.0000   1.0000
     1.0000   1.0000   1.0000   1.0000   1.0000   1.0000   1.0000   1.0000
     1.0000   1.0000   1.0000   1.0000   0.0000   0.0000   0.0000   0.0000
     0.0000   0.0000   0.0000   0.0000   0.0000   0.0000   0.0000   0.0000
     0.0000   0.0000   0.0000   0.0000   0.0000

          k = 0.0000 0.0000 0.1414 ( 10056 PWs)   bands (ev):

   -48.7072 -48.7061 -48.7046 -48.7035 -23.0326 -23.0146 -23.0109 -23.0077
   -23.0075 -23.0042 -22.9538 -22.9457 -22.9298 -22.9270 -22.9269 -22.9241
   -21.9768 -21.9504 -21.9440 -21.9315  -6.8745  -6.6933  -6.1818  -6.0240
    -6.0154  -5.9968  -5.6621  -5.6556  -5.4022  -5.3817  -5.3245  -5.3182
    -4.2039  -4.1607  -4.1601  -3.9897  -3.9879  -3.9609  -3.9586  -3.9367
    -3.9338  -3.6912  -3.6900  -3.5624   5.4033   5.4169   5.5310   5.6194
     5.7449   5.7453   5.9845   6.3996   6.5084   6.5202   7.2563   7.2655
     7.8329   7.8388   7.8451   8.0033   8.0142   8.0985   8.1070   8.1964
     8.5851   8.6822   9.1651   9.1717   9.1733   9.1744   9.2790   9.6537
     9.7400   9.7607   9.9425   9.9572  10.3945  10.3971  10.4467  10.5099
    11.9131  12.0780  12.2268  12.2341  14.3803  14.3830  14.6976  14.7050
    15.4331  15.5402  15.5467  15.6758  15.6809  15.6917  16.0790  16.1151
    16.1310  16.4558  17.2412  17.3798  17.5669

     occupation numbers 
     1.0000   1.0000   1.0000   1.0000   1.0000   1.0000   1.0000   1.0000
     1.0000   1.0000   1.0000   1.0000   1.0000   1.0000   1.0000   1.0000
     1.0000   1.0000   1.0000   1.0000   1.0000   1.0000   1.0000   1.0000
     1.0000   1.0000   1.0000   1.0000   1.0000   1.0000   1.0000   1.0000
     1.0000   1.0000   1.0000   1.0000   1.0000   1.0000   1.0000   1.0000
     1.0000   1.0000   1.0000   1.0000   1.0000   1.0000   1.0000   1.0000
     1.0000   1.0000   1.0000   1.0000   1.0000   1.0000   1.0000   1.0000
     1.0000   1.0000   1.0000   1.0000   1.0000   1.0000   1.0000   1.0000
     1.0000   1.0000   1.0000   1.0000   1.0000   1.0000   1.0000   1.0000
     1.0000   1.0000   1.0000   1.0000   1.0000   1.0000   1.0000   1.0000
     1.0000   1.0000   1.0000   1.0000   0.0000   0.0000   0.0000   0.0000
     0.0000   0.0000   0.0000   0.0000   0.0000   0.0000   0.0000   0.0000
     0.0000   0.0000   0.0000   0.0000   0.0000

          k = 0.0000 0.0000 0.2829 ( 10040 PWs)   bands (ev):

   -48.7069 -48.7065 -48.7042 -48.7038 -23.0098 -23.0086 -23.0085 -23.0066
   -23.0053 -22.9935 -22.9786 -22.9672 -22.9289 -22.9278 -22.9261 -22.9250
   -21.9684 -21.9584 -21.9401 -21.9354  -6.7985  -6.7201  -6.0156  -6.0052
    -5.9521  -5.8821  -5.6479  -5.6391  -5.5765  -5.5701  -5.4514  -5.4451
    -4.1230  -4.0199  -3.9934  -3.9927  -3.9809  -3.9788  -3.9699  -3.9677
    -3.8180  -3.8171  -3.8110  -3.6689   5.4075   5.4127   5.6249   5.6289
     5.9470   6.1967   6.4173   6.6313   6.6827   6.6938   6.9523   6.9625
     7.2344   7.6318   7.8825   7.8914   7.9481   7.9584   8.3709   8.3768
     8.4891   8.7620   8.7676   8.8511   8.9926   9.0777   9.6223   9.6232
     9.7817   9.8018   9.8489   9.8674  10.0731  10.0742  10.4660  10.4901
    11.9623  12.0252  12.9652  12.9714  13.7607  13.7652  14.9037  14.9116
    15.2123  15.2202  15.5097  15.6026  15.6844  15.6884  16.5087  16.5777
    16.7643  17.0593  17.1346  17.3762  17.4980

     occupation numbers 
     1.0000   1.0000   1.0000   1.0000   1.0000   1.0000   1.0000   1.0000
     1.0000   1.0000   1.0000   1.0000   1.0000   1.0000   1.0000   1.0000
     1.0000   1.0000   1.0000   1.0000   1.0000   1.0000   1.0000   1.0000
     1.0000   1.0000   1.0000   1.0000   1.0000   1.0000   1.0000   1.0000
     1.0000   1.0000   1.0000   1.0000   1.0000   1.0000   1.0000   1.0000
     1.0000   1.0000   1.0000   1.0000   1.0000   1.0000   1.0000   1.0000
     1.0000   1.0000   1.0000   1.0000   1.0000   1.0000   1.0000   1.0000
     1.0000   1.0000   1.0000   1.0000   1.0000   1.0000   1.0000   1.0000
     1.0000   1.0000   1.0000   1.0000   1.0000   1.0000   1.0000   1.0000
     1.0000   1.0000   1.0000   1.0000   1.0000   1.0000   1.0000   1.0000
     1.0000   1.0000   1.0000   1.0000   0.9934   0.9917   0.0000   0.0000
     0.0000   0.0000   0.0000   0.0000   0.0000   0.0000   0.0000   0.0000
     0.0000   0.0000   0.0000   0.0000   0.0000

          k = 0.0000 0.1994 0.0000 ( 10070 PWs)   bands (ev):

   -48.7071 -48.7057 -48.7050 -48.7036 -23.0389 -23.0236 -23.0057 -23.0004
   -22.9996 -22.9963 -22.9436 -22.9402 -22.9381 -22.9351 -22.9345 -22.9315
   -21.9739 -21.9469 -21.9461 -21.9328  -6.7832  -6.6851  -6.3788  -6.0169
    -5.9916  -5.9305  -5.7145  -5.6681  -5.4971  -5.3793  -5.3704  -5.3377
    -4.2090  -4.1050  -4.0781  -3.9845  -3.9809  -3.9706  -3.9114  -3.9101
    -3.8650  -3.6918  -3.6548  -3.5665   5.4400   5.4842   5.6628   5.6797
     5.8263   5.9430   6.0711   6.3702   6.5151   6.6031   7.1047   7.4626
     7.4929   7.5458   7.7368   7.7404   7.8808   7.9141   7.9922   8.8050
     8.8361   8.8539   8.9716   9.0344   9.0564   9.0770   9.1799   9.3640
     9.4682   9.5527   9.7201   9.8422  10.2956  10.2994  10.3473  10.4382
    12.1957  12.2881  12.4716  12.6434  14.3765  14.4293  14.6412  14.6541
    15.1154  15.3825  15.4990  15.5439  15.8994  16.2721  16.2757  16.3313
    16.3363  16.6331  16.8243  17.5736  17.6567

     occupation numbers 
     1.0000   1.0000   1.0000   1.0000   1.0000   1.0000   1.0000   1.0000
     1.0000   1.0000   1.0000   1.0000   1.0000   1.0000   1.0000   1.0000
     1.0000   1.0000   1.0000   1.0000   1.0000   1.0000   1.0000   1.0000
     1.0000   1.0000   1.0000   1.0000   1.0000   1.0000   1.0000   1.0000
     1.0000   1.0000   1.0000   1.0000   1.0000   1.0000   1.0000   1.0000
     1.0000   1.0000   1.0000   1.0000   1.0000   1.0000   1.0000   1.0000
     1.0000   1.0000   1.0000   1.0000   1.0000   1.0000   1.0000   1.0000
     1.0000   1.0000   1.0000   1.0000   1.0000   1.0000   1.0000   1.0000
     1.0000   1.0000   1.0000   1.0000   1.0000   1.0000   1.0000   1.0000
     1.0000   1.0000   1.0000   1.0000   1.0000   1.0000   1.0000   1.0000
     1.0000   1.0000   1.0000   1.0000   0.0000   0.0000   0.0000   0.0000
     0.0000   0.0000   0.0000   0.0000   0.0000   0.0000   0.0000   0.0000
     0.0000   0.0000   0.0000   0.0000   0.0000

          k = 0.0000 0.1994 0.1414 ( 10059 PWs)   bands (ev):

   -48.7070 -48.7059 -48.7048 -48.7037 -23.0301 -23.0155 -23.0051 -23.0002
   -23.0000 -22.9966 -22.9531 -22.9464 -22.9395 -22.9351 -22.9348 -22.9319
   -21.9712 -21.9493 -21.9449 -21.9341  -6.7579  -6.6627  -6.3000  -6.0014
    -5.9860  -5.9365  -5.6869  -5.6430  -5.5891  -5.4700  -5.3982  -5.3869
    -4.1474  -4.1466  -3.9832  -3.9830  -3.9718  -3.9692  -3.9522  -3.8778
    -3.8753  -3.7330  -3.6744  -3.5957   5.6527   5.6644   5.6780   5.7394
     5.8482   5.9854   6.1034   6.4189   6.5775   6.5849   7.1816   7.3067
     7.3694   7.5270   7.6378   7.7967   7.8589   7.8628   7.9429   8.5983
     8.7460   8.7536   8.8291   9.1070   9.1350   9.1910   9.2151   9.3554
     9.4588   9.4855   9.6757   9.6882  10.2487  10.2497  10.3000  10.3900
    12.4087  12.5166  12.5255  12.6250  14.4113  14.4168  14.4504  14.4991
    15.1420  15.3249  15.3730  15.3771  16.3339  16.3368  16.3497  16.4221
    16.4328  16.7998  17.2484  17.7927  17.8442

     occupation numbers 
     1.0000   1.0000   1.0000   1.0000   1.0000   1.0000   1.0000   1.0000
     1.0000   1.0000   1.0000   1.0000   1.0000   1.0000   1.0000   1.0000
     1.0000   1.0000   1.0000   1.0000   1.0000   1.0000   1.0000   1.0000
     1.0000   1.0000   1.0000   1.0000   1.0000   1.0000   1.0000   1.0000
     1.0000   1.0000   1.0000   1.0000   1.0000   1.0000   1.0000   1.0000
     1.0000   1.0000   1.0000   1.0000   1.0000   1.0000   1.0000   1.0000
     1.0000   1.0000   1.0000   1.0000   1.0000   1.0000   1.0000   1.0000
     1.0000   1.0000   1.0000   1.0000   1.0000   1.0000   1.0000   1.0000
     1.0000   1.0000   1.0000   1.0000   1.0000   1.0000   1.0000   1.0000
     1.0000   1.0000   1.0000   1.0000   1.0000   1.0000   1.0000   1.0000
     1.0000   1.0000   1.0000   1.0000   0.0000   0.0000   0.0000   0.0000
     0.0000   0.0000   0.0000   0.0000   0.0000   0.0000   0.0000   0.0000
     0.0000   0.0000   0.0000   0.0000   0.0000

          k = 0.0000 0.1994 0.2829 ( 10077 PWs)   bands (ev):

   -48.7066 -48.7062 -48.7045 -48.7041 -23.0066 -23.0036 -23.0017 -22.9990
   -22.9977 -22.9943 -22.9772 -22.9679 -22.9381 -22.9364 -22.9339 -22.9328
   -21.9643 -21.9559 -21.9415 -21.9374  -6.6975  -6.6502  -6.0886  -5.9709
    -5.9520  -5.9012  -5.8171  -5.6875  -5.6088  -5.5735  -5.4968  -5.4791
    -4.1272  -4.0453  -4.0018  -3.9793  -3.9750  -3.9421  -3.9082  -3.8547
    -3.8465  -3.7825  -3.7419  -3.6758   5.6684   5.6736   5.8695   5.8747
     6.1226   6.2783   6.4042   6.5783   6.7602   6.8020   6.9604   7.0444
     7.1751   7.3852   7.6289   7.6690   7.6793   7.8031   7.9823   8.0601
     8.3454   8.3543   8.9019   9.0467   9.2819   9.3160   9.4329   9.4695
     9.5344   9.5451   9.6081   9.6217   9.9651  10.0174  10.3139  10.3394
    12.5168  12.5771  13.0890  13.1029  13.8202  13.8208  14.6719  14.7054
    15.0029  15.0255  15.2109  15.2958  16.3371  16.3376  16.8353  16.8427
    17.0859  17.3570  17.3749  17.5096  17.7384

     occupation numbers 
     1.0000   1.0000   1.0000   1.0000   1.0000   1.0000   1.0000   1.0000
     1.0000   1.0000   1.0000   1.0000   1.0000   1.0000   1.0000   1.0000
     1.0000   1.0000   1.0000   1.0000   1.0000   1.0000   1.0000   1.0000
     1.0000   1.0000   1.0000   1.0000   1.0000   1.0000   1.0000   1.0000
     1.0000   1.0000   1.0000   1.0000   1.0000   1.0000   1.0000   1.0000
     1.0000   1.0000   1.0000   1.0000   1.0000   1.0000   1.0000   1.0000
     1.0000   1.0000   1.0000   1.0000   1.0000   1.0000   1.0000   1.0000
     1.0000   1.0000   1.0000   1.0000   1.0000   1.0000   1.0000   1.0000
     1.0000   1.0000   1.0000   1.0000   1.0000   1.0000   1.0000   1.0000
     1.0000   1.0000   1.0000   1.0000   1.0000   1.0000   1.0000   1.0000
     1.0000   1.0000   1.0000   1.0000   0.8906   0.8877   0.0000   0.0000
     0.0000   0.0000   0.0000   0.0000   0.0000   0.0000   0.0000   0.0000
     0.0000   0.0000   0.0000   0.0000   0.0000

          k = 0.0000 0.3989 0.0000 ( 10076 PWs)   bands (ev):

   -48.7064 -48.7056 -48.7051 -48.7043 -23.0327 -23.0269 -22.9890 -22.9804
   -22.9800 -22.9764 -22.9641 -22.9554 -22.9551 -22.9516 -22.9419 -22.9398
   -21.9609 -21.9504 -21.9443 -21.9389  -6.6468  -6.5494  -6.4459  -5.9710
    -5.9009  -5.8994  -5.7945  -5.7593  -5.7354  -5.5337  -5.4887  -5.4868
    -4.1404  -4.0546  -3.9615  -3.9345  -3.9029  -3.8823  -3.8354  -3.7980
    -3.7654  -3.7580  -3.6911  -3.6811   5.4693   5.4759   6.2896   6.3440
     6.3661   6.3904   6.4983   6.6381   6.6887   6.7512   7.0044   7.0639
     7.1087   7.2032   7.2594   7.3120   7.6752   7.8294   7.8656   7.8943
     8.1131   8.4297   8.7041   8.9234   9.0292   9.1887   9.2239   9.3939
     9.4612   9.5089   9.6414   9.7200   9.8107   9.9588   9.9636  10.1911
    12.8970  13.0942  13.4410  13.6651  13.7131  13.8789  14.3771  14.6424
    14.7901  14.8229  15.1125  15.1703  16.3007  16.6465  17.0558  17.1432
    17.6355  17.7299  17.7971  17.8990  18.1530

     occupation numbers 
     1.0000   1.0000   1.0000   1.0000   1.0000   1.0000   1.0000   1.0000
     1.0000   1.0000   1.0000   1.0000   1.0000   1.0000   1.0000   1.0000
     1.0000   1.0000   1.0000   1.0000   1.0000   1.0000   1.0000   1.0000
     1.0000   1.0000   1.0000   1.0000   1.0000   1.0000   1.0000   1.0000
     1.0000   1.0000   1.0000   1.0000   1.0000   1.0000   1.0000   1.0000
     1.0000   1.0000   1.0000   1.0000   1.0000   1.0000   1.0000   1.0000
     1.0000   1.0000   1.0000   1.0000   1.0000   1.0000   1.0000   1.0000
     1.0000   1.0000   1.0000   1.0000   1.0000   1.0000   1.0000   1.0000
     1.0000   1.0000   1.0000   1.0000   1.0000   1.0000   1.0000   1.0000
     1.0000   1.0000   1.0000   1.0000   1.0000   1.0000   1.0000   1.0000
     1.0000   1.0000   1.0000   0.9999   0.9994   0.3140   0.0000   0.0000
     0.0000   0.0000   0.0000   0.0000   0.0000   0.0000   0.0000   0.0000
     0.0000   0.0000   0.0000   0.0000   0.0000

          k = 0.0000 0.3989 0.1414 ( 10075 PWs)   bands (ev):

   -48.7063 -48.7055 -48.7052 -48.7044 -23.0243 -23.0187 -22.9881 -22.9808
   -22.9800 -22.9767 -22.9635 -22.9559 -22.9551 -22.9520 -22.9505 -22.9482
   -21.9592 -21.9493 -21.9458 -21.9400  -6.5944  -6.4794  -6.4360  -5.9957
    -5.9006  -5.8884  -5.7740  -5.7735  -5.7287  -5.5638  -5.5631  -5.5448
    -4.1024  -4.0388  -3.9670  -3.9666  -3.9523  -3.9162  -3.8267  -3.8146
    -3.7660  -3.7361  -3.6663  -3.6649   5.7248   5.7303   6.2977   6.3410
     6.3676   6.3861   6.5673   6.7216   6.7610   6.7708   7.0099   7.0679
     7.0806   7.2530   7.2565   7.3258   7.4532   7.6724   7.6729   7.8286
     8.0946   8.1576   8.5850   8.7458   9.1600   9.2500   9.3750   9.4042
     9.4179   9.4776   9.6446   9.7447   9.7997   9.9145   9.9599  10.1672
    13.0413  13.2051  13.4662  13.6432  13.8078  13.9519  14.4029  14.5861
    14.6013  14.6160  14.9422  14.9771  16.7709  17.1100  17.1772  17.2487
    17.6366  17.7410  17.7962  17.9856  18.2128

     occupation numbers 
     1.0000   1.0000   1.0000   1.0000   1.0000   1.0000   1.0000   1.0000
     1.0000   1.0000   1.0000   1.0000   1.0000   1.0000   1.0000   1.0000
     1.0000   1.0000   1.0000   1.0000   1.0000   1.0000   1.0000   1.0000
     1.0000   1.0000   1.0000   1.0000   1.0000   1.0000   1.0000   1.0000
     1.0000   1.0000   1.0000   1.0000   1.0000   1.0000   1.0000   1.0000
     1.0000   1.0000   1.0000   1.0000   1.0000   1.0000   1.0000   1.0000
     1.0000   1.0000   1.0000   1.0000   1.0000   1.0000   1.0000   1.0000
     1.0000   1.0000   1.0000   1.0000   1.0000   1.0000   1.0000   1.0000
     1.0000   1.0000   1.0000   1.0000   1.0000   1.0000   1.0000   1.0000
     1.0000   1.0000   1.0000   1.0000   1.0000   1.0000   1.0000   1.0000
     1.0000   1.0000   1.0000   1.0000   0.9371   0.0127   0.0000   0.0000
     0.0000   0.0000   0.0000   0.0000   0.0000   0.0000   0.0000   0.0000
     0.0000   0.0000   0.0000   0.0000   0.0000

          k = 0.0000 0.3989 0.2829 ( 10090 PWs)   bands (ev):

   -48.7060 -48.7055 -48.7051 -48.7047 -23.0019 -22.9973 -22.9860 -22.9829
   -22.9790 -22.9777 -22.9743 -22.9700 -22.9604 -22.9580 -22.9541 -22.9529
   -21.9550 -21.9499 -21.9464 -21.9429  -6.4861  -6.4297  -6.2995  -6.1027
    -5.8679  -5.8548  -5.8112  -5.7353  -5.7154  -5.7057  -5.6474  -5.6361
    -4.0129  -4.0116  -4.0097  -3.9990  -3.9526  -3.9523  -3.9052  -3.8970
    -3.6956  -3.6855  -3.6604  -3.6568   6.3058   6.3304   6.3585   6.3642
     6.3719   6.3785   6.7742   6.7796   6.8364   6.9692   6.9733   7.0720
     7.0768   7.1953   7.2339   7.2444   7.2926   7.4247   7.4261   7.7353
     7.7364   7.7696   8.0653   8.1902   9.4371   9.4642   9.4645   9.4725
     9.4969   9.5867   9.7284   9.7519   9.7548   9.7765   9.9865  10.0825
    13.4391  13.5525  13.5617  13.5831  14.0784  14.0852  14.1005  14.1826
    14.4705  14.5137  14.5638  14.5714  17.5204  17.5263  17.7230  17.7486
    17.7962  17.8139  17.9359  17.9376  17.9875

     occupation numbers 
     1.0000   1.0000   1.0000   1.0000   1.0000   1.0000   1.0000   1.0000
     1.0000   1.0000   1.0000   1.0000   1.0000   1.0000   1.0000   1.0000
     1.0000   1.0000   1.0000   1.0000   1.0000   1.0000   1.0000   1.0000
     1.0000   1.0000   1.0000   1.0000   1.0000   1.0000   1.0000   1.0000
     1.0000   1.0000   1.0000   1.0000   1.0000   1.0000   1.0000   1.0000
     1.0000   1.0000   1.0000   1.0000   1.0000   1.0000   1.0000   1.0000
     1.0000   1.0000   1.0000   1.0000   1.0000   1.0000   1.0000   1.0000
     1.0000   1.0000   1.0000   1.0000   1.0000   1.0000   1.0000   1.0000
     1.0000   1.0000   1.0000   1.0000   1.0000   1.0000   1.0000   1.0000
     1.0000   1.0000   1.0000   1.0000   1.0000   1.0000   1.0000   1.0000
     1.0000   1.0000   1.0000   1.0000   0.0000   0.0000   0.0000   0.0000
     0.0000   0.0000   0.0000   0.0000   0.0000   0.0000   0.0000   0.0000
     0.0000   0.0000   0.0000   0.0000   0.0000

          k = 0.2000 0.0000 0.0000 ( 10070 PWs)   bands (ev):

   -48.7071 -48.7057 -48.7050 -48.7036 -23.0389 -23.0235 -23.0036 -23.0026
   -22.9994 -22.9965 -22.9436 -22.9381 -22.9379 -22.9375 -22.9343 -22.9317
   -21.9738 -21.9469 -21.9460 -21.9328  -6.7828  -6.6860  -6.3809  -6.0170
    -5.9924  -5.9311  -5.7206  -5.6610  -5.4918  -5.3821  -5.3736  -5.3434
    -4.2082  -4.1046  -4.0745  -3.9822  -3.9810  -3.9686  -3.9107  -3.9102
    -3.8632  -3.6902  -3.6544  -3.5663   5.4400   5.4840   5.6624   5.6797
     5.8340   5.9377   6.0738   6.3788   6.5032   6.6018   7.1059   7.4560
     7.5009   7.5376   7.7473   7.7512   7.8729   7.9090   7.9928   8.8033
     8.8356   8.8660   8.9681   9.0331   9.0570   9.0801   9.1934   9.3559
     9.4437   9.5543   9.7041   9.8433  10.2920  10.2952  10.3420  10.4421
    12.1880  12.2966  12.4703  12.6469  14.3701  14.4368  14.6389  14.6559
    15.1137  15.3788  15.4940  15.5489  15.8996  16.2762  16.2776  16.3316
    16.3362  16.6321  16.8243  17.5929  17.6489

     occupation numbers 
     1.0000   1.0000   1.0000   1.0000   1.0000   1.0000   1.0000   1.0000
     1.0000   1.0000   1.0000   1.0000   1.0000   1.0000   1.0000   1.0000
     1.0000   1.0000   1.0000   1.0000   1.0000   1.0000   1.0000   1.0000
     1.0000   1.0000   1.0000   1.0000   1.0000   1.0000   1.0000   1.0000
     1.0000   1.0000   1.0000   1.0000   1.0000   1.0000   1.0000   1.0000
     1.0000   1.0000   1.0000   1.0000   1.0000   1.0000   1.0000   1.0000
     1.0000   1.0000   1.0000   1.0000   1.0000   1.0000   1.0000   1.0000
     1.0000   1.0000   1.0000   1.0000   1.0000   1.0000   1.0000   1.0000
     1.0000   1.0000   1.0000   1.0000   1.0000   1.0000   1.0000   1.0000
     1.0000   1.0000   1.0000   1.0000   1.0000   1.0000   1.0000   1.0000
     1.0000   1.0000   1.0000   1.0000   0.0000   0.0000   0.0000   0.0000
     0.0000   0.0000   0.0000   0.0000   0.0000   0.0000   0.0000   0.0000
     0.0000   0.0000   0.0000   0.0000   0.0000

          k = 0.2000 0.0000 0.1414 ( 10061 PWs)   bands (ev):

   -48.7070 -48.7059 -48.7048 -48.7037 -23.0300 -23.0155 -23.0032 -23.0020
   -22.9998 -22.9970 -22.9531 -22.9464 -22.9376 -22.9368 -22.9347 -22.9322
   -21.9711 -21.9494 -21.9448 -21.9341  -6.7575  -6.6634  -6.3021  -6.0019
    -5.9867  -5.9371  -5.6929  -5.6361  -5.5874  -5.4727  -5.3973  -5.3926
    -4.1459  -4.1457  -3.9812  -3.9808  -3.9697  -3.9686  -3.9521  -3.8761
    -3.8752  -3.7315  -3.6739  -3.5957   5.6530   5.6640   5.6779   5.7392
     5.8551   5.9807   6.1071   6.4217   6.5659   6.5881   7.1835   7.3145
     7.3606   7.5204   7.6447   7.8068   7.8549   7.8627   7.9380   8.5982
     8.7509   8.7549   8.8291   9.1068   9.1378   9.1883   9.2269   9.3611
     9.4523   9.4612   9.6722   9.6758  10.2440  10.2479  10.2964  10.3909
    12.4043  12.5220  12.5245  12.6281  14.4083  14.4196  14.4439  14.5069
    15.1402  15.3188  15.3741  15.3795  16.3341  16.3367  16.3501  16.4256
    16.4346  16.7988  17.2480  17.7908  17.8375

     occupation numbers 
     1.0000   1.0000   1.0000   1.0000   1.0000   1.0000   1.0000   1.0000
     1.0000   1.0000   1.0000   1.0000   1.0000   1.0000   1.0000   1.0000
     1.0000   1.0000   1.0000   1.0000   1.0000   1.0000   1.0000   1.0000
     1.0000   1.0000   1.0000   1.0000   1.0000   1.0000   1.0000   1.0000
     1.0000   1.0000   1.0000   1.0000   1.0000   1.0000   1.0000   1.0000
     1.0000   1.0000   1.0000   1.0000   1.0000   1.0000   1.0000   1.0000
     1.0000   1.0000   1.0000   1.0000   1.0000   1.0000   1.0000   1.0000
     1.0000   1.0000   1.0000   1.0000   1.0000   1.0000   1.0000   1.0000
     1.0000   1.0000   1.0000   1.0000   1.0000   1.0000   1.0000   1.0000
     1.0000   1.0000   1.0000   1.0000   1.0000   1.0000   1.0000   1.0000
     1.0000   1.0000   1.0000   1.0000   0.0000   0.0000   0.0000   0.0000
     0.0000   0.0000   0.0000   0.0000   0.0000   0.0000   0.0000   0.0000
     0.0000   0.0000   0.0000   0.0000   0.0000

          k = 0.2000 0.0000 0.2829 ( 10065 PWs)   bands (ev):

   -48.7066 -48.7062 -48.7045 -48.7041 -23.0066 -23.0022 -23.0009 -23.0005
   -22.9986 -22.9943 -22.9772 -22.9679 -22.9367 -22.9356 -22.9354 -22.9336
   -21.9642 -21.9559 -21.9415 -21.9374  -6.6972  -6.6503  -6.0905  -5.9716
    -5.9526  -5.9025  -5.8183  -5.6896  -5.6147  -5.5672  -5.5026  -5.4744
    -4.1262  -4.0449  -4.0008  -3.9771  -3.9729  -3.9409  -3.9067  -3.8534
    -3.8452  -3.7827  -3.7411  -3.6759   5.6681   5.6734   5.8721   5.8791
     6.1201   6.2797   6.4040   6.5778   6.7493   6.8089   6.9680   7.0345
     7.1757   7.3898   7.6368   7.6696   7.6721   7.7954   7.9902   8.0560
     8.3422   8.3594   8.9059   9.0549   9.2839   9.3235   9.4312   9.4722
     9.5108   9.5436   9.5880   9.6207   9.9618  10.0178  10.3103  10.3364
    12.5177  12.5794  13.0828  13.1095  13.8161  13.8250  14.6650  14.7138
    14.9960  15.0337  15.2087  15.2933  16.3372  16.3376  16.8366  16.8440
    17.0866  17.3581  17.3725  17.5088  17.7398

     occupation numbers 
     1.0000   1.0000   1.0000   1.0000   1.0000   1.0000   1.0000   1.0000
     1.0000   1.0000   1.0000   1.0000   1.0000   1.0000   1.0000   1.0000
     1.0000   1.0000   1.0000   1.0000   1.0000   1.0000   1.0000   1.0000
     1.0000   1.0000   1.0000   1.0000   1.0000   1.0000   1.0000   1.0000
     1.0000   1.0000   1.0000   1.0000   1.0000   1.0000   1.0000   1.0000
     1.0000   1.0000   1.0000   1.0000   1.0000   1.0000   1.0000   1.0000
     1.0000   1.0000   1.0000   1.0000   1.0000   1.0000   1.0000   1.0000
     1.0000   1.0000   1.0000   1.0000   1.0000   1.0000   1.0000   1.0000
     1.0000   1.0000   1.0000   1.0000   1.0000   1.0000   1.0000   1.0000
     1.0000   1.0000   1.0000   1.0000   1.0000   1.0000   1.0000   1.0000
     1.0000   1.0000   1.0000   1.0000   0.9086   0.8655   0.0000   0.0000
     0.0000   0.0000   0.0000   0.0000   0.0000   0.0000   0.0000   0.0000
     0.0000   0.0000   0.0000   0.0000   0.0000

          k = 0.2000 0.1994 0.0000 ( 10066 PWs)   bands (ev):

   -48.7069 -48.7055 -48.7052 -48.7038 -23.0365 -23.0241 -23.0150 -23.0070
   -22.9807 -22.9767 -22.9626 -22.9547 -22.9430 -22.9386 -22.9275 -22.9240
   -21.9684 -21.9467 -21.9461 -21.9353  -6.7288  -6.6859  -6.5022  -6.0283
    -5.8787  -5.8639  -5.7856  -5.6304  -5.5668  -5.4566  -5.4548  -5.4475
    -4.1246  -3.9972  -3.9932  -3.9800  -3.9756  -3.9384  -3.9184  -3.8365
    -3.8157  -3.7388  -3.6361  -3.5921   5.3917   5.4792   5.4999   5.6174
     6.1030   6.1755   6.4788   6.5957   6.6520   6.6843   6.7070   7.2444
     7.3212   7.5666   7.6318   7.6768   7.8152   7.9564   7.9611   8.5852
     8.7574   8.7717   8.7760   8.9488   8.9914   9.0740   9.0758   9.1240
     9.3191   9.6039   9.8524   9.8543  10.0742  10.0799  10.0946  10.4854
    11.9553  12.9613  12.9675  13.0846  13.8255  14.6194  14.6293  14.7425
    14.9738  15.2192  15.2243  15.6056  15.6923  16.4767  16.5136  16.5666
    16.7579  16.7707  17.3554  17.5442  18.1282

     occupation numbers 
     1.0000   1.0000   1.0000   1.0000   1.0000   1.0000   1.0000   1.0000
     1.0000   1.0000   1.0000   1.0000   1.0000   1.0000   1.0000   1.0000
     1.0000   1.0000   1.0000   1.0000   1.0000   1.0000   1.0000   1.0000
     1.0000   1.0000   1.0000   1.0000   1.0000   1.0000   1.0000   1.0000
     1.0000   1.0000   1.0000   1.0000   1.0000   1.0000   1.0000   1.0000
     1.0000   1.0000   1.0000   1.0000   1.0000   1.0000   1.0000   1.0000
     1.0000   1.0000   1.0000   1.0000   1.0000   1.0000   1.0000   1.0000
     1.0000   1.0000   1.0000   1.0000   1.0000   1.0000   1.0000   1.0000
     1.0000   1.0000   1.0000   1.0000   1.0000   1.0000   1.0000   1.0000
     1.0000   1.0000   1.0000   1.0000   1.0000   1.0000   1.0000   1.0000
     1.0000   1.0000   1.0000   1.0000   0.8625   0.0000   0.0000   0.0000
     0.0000   0.0000   0.0000   0.0000   0.0000   0.0000   0.0000   0.0000
     0.0000   0.0000   0.0000   0.0000   0.0000

          k = 0.2000 0.1994 0.1414 ( 10062 PWs)   bands (ev):

   -48.7068 -48.7057 -48.7050 -48.7039 -23.0278 -23.0161 -23.0142 -23.0077
   -22.9803 -22.9771 -22.9622 -22.9554 -22.9518 -22.9469 -22.9271 -22.9243
   -21.9663 -21.9487 -21.9451 -21.9363  -6.6938  -6.6686  -6.4286  -6.0045
    -5.8848  -5.8773  -5.7532  -5.7439  -5.5540  -5.5347  -5.4638  -5.4561
    -4.1484  -3.9761  -3.9716  -3.9698  -3.9498  -3.9424  -3.9282  -3.8468
    -3.8047  -3.7315  -3.6725  -3.6173   5.4737   5.5005   5.7339   5.7959
     6.1458   6.2247   6.4822   6.5955   6.6832   6.6900   6.8149   7.2176
     7.3223   7.3439   7.4735   7.7014   7.7352   7.8968   7.9298   8.3921
     8.6170   8.6400   8.6759   9.0372   9.0547   9.0950   9.1851   9.3315
     9.3364   9.5905   9.6268   9.7162  10.0025  10.0636  10.0977  10.4007
    12.2758  12.9838  13.0695  13.0702  13.9258  14.3975  14.5237  14.6750
    14.9978  15.0448  15.1939  15.4548  15.9702  16.4641  16.6914  16.7031
    16.9807  17.2027  17.4349  17.7337  17.9511

     occupation numbers 
     1.0000   1.0000   1.0000   1.0000   1.0000   1.0000   1.0000   1.0000
     1.0000   1.0000   1.0000   1.0000   1.0000   1.0000   1.0000   1.0000
     1.0000   1.0000   1.0000   1.0000   1.0000   1.0000   1.0000   1.0000
     1.0000   1.0000   1.0000   1.0000   1.0000   1.0000   1.0000   1.0000
     1.0000   1.0000   1.0000   1.0000   1.0000   1.0000   1.0000   1.0000
     1.0000   1.0000   1.0000   1.0000   1.0000   1.0000   1.0000   1.0000
     1.0000   1.0000   1.0000   1.0000   1.0000   1.0000   1.0000   1.0000
     1.0000   1.0000   1.0000   1.0000   1.0000   1.0000   1.0000   1.0000
     1.0000   1.0000   1.0000   1.0000   1.0000   1.0000   1.0000   1.0000
     1.0000   1.0000   1.0000   1.0000   1.0000   1.0000   1.0000   1.0000
     1.0000   1.0000   1.0000   1.0000   0.0439   0.0000   0.0000   0.0000
     0.0000   0.0000   0.0000   0.0000   0.0000   0.0000   0.0000   0.0000
     0.0000   0.0000   0.0000   0.0000   0.0000

          k = 0.2000 0.1994 0.2829 ( 10082 PWs)   bands (ev):

   -48.7064 -48.7060 -48.7047 -48.7043 -23.0122 -23.0097 -23.0049 -22.9948
   -22.9793 -22.9781 -22.9764 -22.9684 -22.9593 -22.9572 -22.9263 -22.9252
   -21.9607 -21.9540 -21.9424 -21.9390  -6.6380  -6.6357  -6.2318  -5.9766
    -5.9141  -5.8966  -5.8921  -5.7252  -5.6630  -5.5445  -5.5212  -5.4834
    -4.1390  -4.0687  -3.9657  -3.9529  -3.9022  -3.8846  -3.8696  -3.8261
    -3.7682  -3.7602  -3.7532  -3.6836   5.5006   5.5020   6.2462   6.3022
     6.3751   6.3902   6.4879   6.6309   6.6960   6.9373   6.9425   7.0618
     7.0921   7.1213   7.2506   7.4495   7.7590   7.7711   7.8253   7.8593
     8.1186   8.4186   8.7233   8.9283   9.1392   9.2024   9.3944   9.4971
     9.5151   9.5729   9.6226   9.6631   9.7982   9.9620  10.1148  10.1996
    12.9005  13.0280  13.1057  13.4365  13.7973  13.9981  14.2192  14.6399
    14.8458  15.0616  15.1030  15.1658  16.2838  16.4135  17.0687  17.1428
    17.5386  17.6386  17.7204  17.8118  18.0342

     occupation numbers 
     1.0000   1.0000   1.0000   1.0000   1.0000   1.0000   1.0000   1.0000
     1.0000   1.0000   1.0000   1.0000   1.0000   1.0000   1.0000   1.0000
     1.0000   1.0000   1.0000   1.0000   1.0000   1.0000   1.0000   1.0000
     1.0000   1.0000   1.0000   1.0000   1.0000   1.0000   1.0000   1.0000
     1.0000   1.0000   1.0000   1.0000   1.0000   1.0000   1.0000   1.0000
     1.0000   1.0000   1.0000   1.0000   1.0000   1.0000   1.0000   1.0000
     1.0000   1.0000   1.0000   1.0000   1.0000   1.0000   1.0000   1.0000
     1.0000   1.0000   1.0000   1.0000   1.0000   1.0000   1.0000   1.0000
     1.0000   1.0000   1.0000   1.0000   1.0000   1.0000   1.0000   1.0000
     1.0000   1.0000   1.0000   1.0000   1.0000   1.0000   1.0000   1.0000
     1.0000   1.0000   1.0000   1.0000   0.9615   0.0013   0.0000   0.0000
     0.0000   0.0000   0.0000   0.0000   0.0000   0.0000   0.0000   0.0000
     0.0000   0.0000   0.0000   0.0000   0.0000

          k = 0.2000 0.3989 0.0000 ( 10095 PWs)   bands (ev):

   -48.7064 -48.7057 -48.7050 -48.7043 -23.0312 -23.0265 -23.0111 -23.0003
   -22.9913 -22.9804 -22.9552 -22.9513 -22.9417 -22.9400 -22.9348 -22.9311
   -21.9573 -21.9488 -21.9449 -21.9406  -6.7601  -6.6816  -6.4128  -6.0195
    -5.9892  -5.8947  -5.7441  -5.6518  -5.5841  -5.5633  -5.5593  -5.5251
    -4.0451  -3.9743  -3.9603  -3.9393  -3.9385  -3.8443  -3.8092  -3.8001
    -3.7406  -3.6802  -3.6714  -3.6216   5.4456   5.4688   5.7626   5.8238
     6.0064   6.1279   6.4317   6.4843   6.7058   6.9424   7.0144   7.3088
     7.3398   7.4745   7.5391   7.6722   7.7178   7.8660   7.9047   8.0473
     8.3177   8.6083   8.6502   8.6662   9.0604   9.0823   9.1854   9.2052
     9.3282   9.5163   9.6023   9.6120   9.6333   9.6413  10.0899  10.3758
    12.3291  13.0610  13.7586  13.8033  13.9335  14.3799  14.5183  14.6929
    14.7141  14.9050  15.0045  15.3697  15.9960  16.4804  17.1812  17.2237
    17.2427  17.6545  17.7677  17.9370  18.1994

     occupation numbers 
     1.0000   1.0000   1.0000   1.0000   1.0000   1.0000   1.0000   1.0000
     1.0000   1.0000   1.0000   1.0000   1.0000   1.0000   1.0000   1.0000
     1.0000   1.0000   1.0000   1.0000   1.0000   1.0000   1.0000   1.0000
     1.0000   1.0000   1.0000   1.0000   1.0000   1.0000   1.0000   1.0000
     1.0000   1.0000   1.0000   1.0000   1.0000   1.0000   1.0000   1.0000
     1.0000   1.0000   1.0000   1.0000   1.0000   1.0000   1.0000   1.0000
     1.0000   1.0000   1.0000   1.0000   1.0000   1.0000   1.0000   1.0000
     1.0000   1.0000   1.0000   1.0000   1.0000   1.0000   1.0000   1.0000
     1.0000   1.0000   1.0000   1.0000   1.0000   1.0000   1.0000   1.0000
     1.0000   1.0000   1.0000   1.0000   1.0000   1.0000   1.0000   1.0000
     1.0000   1.0000   0.9940   0.9490   0.0305   0.0000   0.0000   0.0000
     0.0000   0.0000   0.0000   0.0000   0.0000   0.0000   0.0000   0.0000
     0.0000   0.0000   0.0000   0.0000   0.0000

          k = 0.2000 0.3989 0.1414 ( 10098 PWs)   bands (ev):

   -48.7062 -48.7056 -48.7051 -48.7045 -23.0229 -23.0184 -23.0101 -23.0013
   -22.9903 -22.9813 -22.9549 -22.9517 -22.9503 -22.9483 -22.9345 -22.9314
   -21.9560 -21.9481 -21.9461 -21.9414  -6.7063  -6.6156  -6.4206  -6.0746
    -5.9640  -5.8655  -5.7533  -5.6733  -5.6152  -5.6141  -5.5668  -5.5335
    -4.0470  -3.9859  -3.9776  -3.9720  -3.9045  -3.8498  -3.8126  -3.7753
    -3.7458  -3.6814  -3.6633  -3.6376   5.6489   5.7218   5.7614   5.8683
     6.1039   6.2083   6.4247   6.5176   6.6948   6.9653   7.0424   7.3241
     7.3538   7.3961   7.4274   7.5188   7.6851   7.6869   7.7347   7.9819
     8.0547   8.6234   8.7249   8.9086   9.0563   9.0891   9.2268   9.2890
     9.2941   9.3198   9.5171   9.5513   9.6303   9.6493  10.0629  10.3071
    12.5723  13.2145  13.8079  13.8187  13.9172  14.4231  14.4714  14.5383
    14.6776  14.7192  14.8180  15.2118  16.3467  16.9118  17.1644  17.3434
    17.3732  17.7450  17.8587  18.0283  18.1795

     occupation numbers 
     1.0000   1.0000   1.0000   1.0000   1.0000   1.0000   1.0000   1.0000
     1.0000   1.0000   1.0000   1.0000   1.0000   1.0000   1.0000   1.0000
     1.0000   1.0000   1.0000   1.0000   1.0000   1.0000   1.0000   1.0000
     1.0000   1.0000   1.0000   1.0000   1.0000   1.0000   1.0000   1.0000
     1.0000   1.0000   1.0000   1.0000   1.0000   1.0000   1.0000   1.0000
     1.0000   1.0000   1.0000   1.0000   1.0000   1.0000   1.0000   1.0000
     1.0000   1.0000   1.0000   1.0000   1.0000   1.0000   1.0000   1.0000
     1.0000   1.0000   1.0000   1.0000   1.0000   1.0000   1.0000   1.0000
     1.0000   1.0000   1.0000   1.0000   1.0000   1.0000   1.0000   1.0000
     1.0000   1.0000   1.0000   1.0000   1.0000   1.0000   1.0000   1.0000
     1.0000   1.0000   0.9369   0.8975   0.0655   0.0000   0.0000   0.0000
     0.0000   0.0000   0.0000   0.0000   0.0000   0.0000   0.0000   0.0000
     0.0000   0.0000   0.0000   0.0000   0.0000

          k = 0.2000 0.3989 0.2829 ( 10087 PWs)   bands (ev):

   -48.7059 -48.7055 -48.7052 -48.7048 -23.0074 -23.0042 -23.0011 -22.9967
   -22.9880 -22.9837 -22.9725 -22.9701 -22.9539 -22.9526 -22.9335 -22.9324
   -21.9529 -21.9491 -21.9460 -21.9434  -6.5801  -6.4675  -6.4432  -6.2340
    -5.8875  -5.7853  -5.7815  -5.7223  -5.7168  -5.6833  -5.5763  -5.5558
    -4.0522  -4.0378  -3.9772  -3.9700  -3.8661  -3.8449  -3.8289  -3.8087
    -3.6977  -3.6775  -3.6670  -3.6658   5.7520   5.7586   6.2716   6.3322
     6.3547   6.4026   6.5215   6.5773   6.7601   6.9183   6.9858   7.0755
     7.1576   7.2488   7.3169   7.4419   7.4504   7.5531   7.6649   7.7630
     7.8787   8.0877   8.5924   8.6817   9.1697   9.2371   9.2632   9.3438
     9.3884   9.4807   9.4827   9.6019   9.6732   9.7553   9.9477  10.0840
    13.1704  13.6402  13.8134  13.8575  13.9662  14.0138  14.2023  14.4002
    14.5737  14.5960  14.6502  14.8753  16.8668  17.0893  17.6339  17.7560
    17.7776  17.9932  18.0197  18.0788  18.2085

     occupation numbers 
     1.0000   1.0000   1.0000   1.0000   1.0000   1.0000   1.0000   1.0000
     1.0000   1.0000   1.0000   1.0000   1.0000   1.0000   1.0000   1.0000
     1.0000   1.0000   1.0000   1.0000   1.0000   1.0000   1.0000   1.0000
     1.0000   1.0000   1.0000   1.0000   1.0000   1.0000   1.0000   1.0000
     1.0000   1.0000   1.0000   1.0000   1.0000   1.0000   1.0000   1.0000
     1.0000   1.0000   1.0000   1.0000   1.0000   1.0000   1.0000   1.0000
     1.0000   1.0000   1.0000   1.0000   1.0000   1.0000   1.0000   1.0000
     1.0000   1.0000   1.0000   1.0000   1.0000   1.0000   1.0000   1.0000
     1.0000   1.0000   1.0000   1.0000   1.0000   1.0000   1.0000   1.0000
     1.0000   1.0000   1.0000   1.0000   1.0000   1.0000   1.0000   1.0000
     1.0000   1.0000   0.9189   0.5666   0.0063   0.0006   0.0000   0.0000
     0.0000   0.0000   0.0000   0.0000   0.0000   0.0000   0.0000   0.0000
     0.0000   0.0000   0.0000   0.0000   0.0000

          k = 0.4000 0.0000 0.0000 ( 10086 PWs)   bands (ev):

   -48.7064 -48.7056 -48.7051 -48.7043 -23.0326 -23.0268 -22.9861 -22.9834
   -22.9794 -22.9769 -22.9614 -22.9583 -22.9546 -22.9522 -22.9419 -22.9398
   -21.9606 -21.9501 -21.9444 -21.9390  -6.6499  -6.5534  -6.4441  -5.9675
    -5.9036  -5.8977  -5.7992  -5.7614  -5.7302  -5.5377  -5.4952  -5.4931
    -4.1391  -4.0528  -3.9616  -3.9346  -3.9005  -3.8817  -3.8269  -3.7957
    -3.7612  -3.7502  -3.6907  -3.6774   5.4689   5.4755   6.2920   6.3530
     6.3645   6.3906   6.4979   6.6471   6.6774   6.7509   6.9946   7.0738
     7.1059   7.2128   7.2558   7.3127   7.6808   7.8363   7.8683   7.8878
     8.1174   8.4257   8.6974   8.9165   9.0259   9.1872   9.2259   9.3704
     9.4552   9.5114   9.6203   9.7254   9.7971   9.9466   9.9562  10.1962
    12.8902  13.1030  13.4351  13.6671  13.7073  13.8873  14.3715  14.6394
    14.7867  14.8256  15.1081  15.1746  16.3006  16.6463  17.0630  17.1488
    17.6293  17.7342  17.7974  17.8974  18.1760

     occupation numbers 
     1.0000   1.0000   1.0000   1.0000   1.0000   1.0000   1.0000   1.0000
     1.0000   1.0000   1.0000   1.0000   1.0000   1.0000   1.0000   1.0000
     1.0000   1.0000   1.0000   1.0000   1.0000   1.0000   1.0000   1.0000
     1.0000   1.0000   1.0000   1.0000   1.0000   1.0000   1.0000   1.0000
     1.0000   1.0000   1.0000   1.0000   1.0000   1.0000   1.0000   1.0000
     1.0000   1.0000   1.0000   1.0000   1.0000   1.0000   1.0000   1.0000
     1.0000   1.0000   1.0000   1.0000   1.0000   1.0000   1.0000   1.0000
     1.0000   1.0000   1.0000   1.0000   1.0000   1.0000   1.0000   1.0000
     1.0000   1.0000   1.0000   1.0000   1.0000   1.0000   1.0000   1.0000
     1.0000   1.0000   1.0000   1.0000   1.0000   1.0000   1.0000   1.0000
     1.0000   1.0000   1.0000   0.9999   0.9995   0.2327   0.0000   0.0000
     0.0000   0.0000   0.0000   0.0000   0.0000   0.0000   0.0000   0.0000
     0.0000   0.0000   0.0000   0.0000   0.0000

          k = 0.4000 0.0000 0.1414 ( 10080 PWs)   bands (ev):

   -48.7063 -48.7055 -48.7052 -48.7044 -23.0242 -23.0186 -22.9853 -22.9830
   -22.9798 -22.9777 -22.9608 -22.9580 -22.9549 -22.9530 -22.9504 -22.9482
   -21.9590 -21.9491 -21.9459 -21.9401  -6.5971  -6.4832  -6.4345  -5.9931
    -5.8995  -5.8910  -5.7782  -5.7762  -5.7240  -5.5689  -5.5679  -5.5500
    -4.1010  -4.0369  -3.9663  -3.9656  -3.9487  -3.9139  -3.8246  -3.8090
    -3.7611  -3.7327  -3.6629  -3.6628   5.7245   5.7299   6.3013   6.3496
     6.3661   6.3860   6.5677   6.7295   6.7502   6.7703   7.0188   7.0584
     7.0780   7.2529   7.2621   7.3263   7.4580   7.6658   7.6751   7.8351
     8.0991   8.1533   8.5819   8.7422   9.1591   9.2474   9.3718   9.3818
     9.4176   9.4718   9.6258   9.7488   9.7872   9.9075   9.9480  10.1706
    13.0353  13.2137  13.4608  13.6447  13.8021  13.9604  14.3975  14.5824
    14.6052  14.6128  14.9375  14.9827  16.7707  17.1094  17.1842  17.2536
    17.6302  17.7446  17.7967  17.9843  18.1981

     occupation numbers 
     1.0000   1.0000   1.0000   1.0000   1.0000   1.0000   1.0000   1.0000
     1.0000   1.0000   1.0000   1.0000   1.0000   1.0000   1.0000   1.0000
     1.0000   1.0000   1.0000   1.0000   1.0000   1.0000   1.0000   1.0000
     1.0000   1.0000   1.0000   1.0000   1.0000   1.0000   1.0000   1.0000
     1.0000   1.0000   1.0000   1.0000   1.0000   1.0000   1.0000   1.0000
     1.0000   1.0000   1.0000   1.0000   1.0000   1.0000   1.0000   1.0000
     1.0000   1.0000   1.0000   1.0000   1.0000   1.0000   1.0000   1.0000
     1.0000   1.0000   1.0000   1.0000   1.0000   1.0000   1.0000   1.0000
     1.0000   1.0000   1.0000   1.0000   1.0000   1.0000   1.0000   1.0000
     1.0000   1.0000   1.0000   1.0000   1.0000   1.0000   1.0000   1.0000
     1.0000   1.0000   1.0000   1.0000   0.9518   0.0083   0.0000   0.0000
     0.0000   0.0000   0.0000   0.0000   0.0000   0.0000   0.0000   0.0000
     0.0000   0.0000   0.0000   0.0000   0.0000

          k = 0.4000 0.0000 0.2829 ( 10087 PWs)   bands (ev):

   -48.7060 -48.7055 -48.7051 -48.7047 -23.0019 -22.9972 -22.9831 -22.9820
   -22.9808 -22.9799 -22.9741 -22.9699 -22.9577 -22.9570 -22.9559 -22.9552
   -21.9549 -21.9499 -21.9463 -21.9429  -6.4873  -6.4290  -6.3025  -6.1031
    -5.8691  -5.8572  -5.8135  -5.7393  -5.7200  -5.7027  -5.6483  -5.6404
    -4.0108  -4.0082  -4.0081  -3.9970  -3.9501  -3.9498  -3.9032  -3.8927
    -3.6920  -3.6828  -3.6572  -3.6544   6.3100   6.3379   6.3603   6.3640
     6.3707   6.3777   6.7774   6.7790   6.8412   6.9595   6.9776   7.0714
     7.0805   7.1885   7.2374   7.2404   7.2842   7.4241   7.4316   7.7320
     7.7401   7.7698   8.0701   8.1928   9.4170   9.4570   9.4603   9.4605
     9.4917   9.5835   9.7233   9.7459   9.7461   9.7774   9.9770  10.0807
    13.4370  13.5555  13.5603  13.5831  14.0735  14.0913  14.0951  14.1912
    14.4655  14.5101  14.5659  14.5715  17.5238  17.5299  17.7169  17.7514
    17.7970  17.8151  17.9232  17.9381  17.9785

     occupation numbers 
     1.0000   1.0000   1.0000   1.0000   1.0000   1.0000   1.0000   1.0000
     1.0000   1.0000   1.0000   1.0000   1.0000   1.0000   1.0000   1.0000
     1.0000   1.0000   1.0000   1.0000   1.0000   1.0000   1.0000   1.0000
     1.0000   1.0000   1.0000   1.0000   1.0000   1.0000   1.0000   1.0000
     1.0000   1.0000   1.0000   1.0000   1.0000   1.0000   1.0000   1.0000
     1.0000   1.0000   1.0000   1.0000   1.0000   1.0000   1.0000   1.0000
     1.0000   1.0000   1.0000   1.0000   1.0000   1.0000   1.0000   1.0000
     1.0000   1.0000   1.0000   1.0000   1.0000   1.0000   1.0000   1.0000
     1.0000   1.0000   1.0000   1.0000   1.0000   1.0000   1.0000   1.0000
     1.0000   1.0000   1.0000   1.0000   1.0000   1.0000   1.0000   1.0000
     1.0000   1.0000   1.0000   1.0000   0.0000   0.0000   0.0000   0.0000
     0.0000   0.0000   0.0000   0.0000   0.0000   0.0000   0.0000   0.0000
     0.0000   0.0000   0.0000   0.0000   0.0000

          k = 0.4000 0.1994 0.0000 ( 10078 PWs)   bands (ev):

   -48.7064 -48.7057 -48.7050 -48.7043 -23.0312 -23.0264 -23.0110 -23.0003
   -22.9911 -22.9804 -22.9555 -22.9513 -22.9417 -22.9400 -22.9351 -22.9311
   -21.9571 -21.9487 -21.9450 -21.9406  -6.7616  -6.6835  -6.4117  -6.0174
    -5.9899  -5.8955  -5.7454  -5.6520  -5.5865  -5.5668  -5.5628  -5.5245
    -4.0462  -3.9752  -3.9604  -3.9385  -3.9378  -3.8429  -3.8089  -3.7933
    -3.7341  -3.6776  -3.6711  -3.6192   5.4454   5.4685   5.7633   5.8244
     6.0054   6.1263   6.4327   6.4853   6.7106   6.9375   7.0196   7.3035
     7.3393   7.4818   7.5463   7.6708   7.7219   7.8679   7.9001   8.0500
     8.3152   8.6040   8.6531   8.6612   9.0607   9.0813   9.1752   9.1891
     9.3293   9.5112   9.5934   9.6109   9.6328   9.6347  10.0900  10.3760
    12.3291  13.0612  13.7600  13.7988  13.9337  14.3813  14.5142  14.6924
    14.7118  14.9046  15.0046  15.3699  15.9964  16.4807  17.1836  17.2300
    17.2440  17.6521  17.7768  17.9359  18.2019

     occupation numbers 
     1.0000   1.0000   1.0000   1.0000   1.0000   1.0000   1.0000   1.0000
     1.0000   1.0000   1.0000   1.0000   1.0000   1.0000   1.0000   1.0000
     1.0000   1.0000   1.0000   1.0000   1.0000   1.0000   1.0000   1.0000
     1.0000   1.0000   1.0000   1.0000   1.0000   1.0000   1.0000   1.0000
     1.0000   1.0000   1.0000   1.0000   1.0000   1.0000   1.0000   1.0000
     1.0000   1.0000   1.0000   1.0000   1.0000   1.0000   1.0000   1.0000
     1.0000   1.0000   1.0000   1.0000   1.0000   1.0000   1.0000   1.0000
     1.0000   1.0000   1.0000   1.0000   1.0000   1.0000   1.0000   1.0000
     1.0000   1.0000   1.0000   1.0000   1.0000   1.0000   1.0000   1.0000
     1.0000   1.0000   1.0000   1.0000   1.0000   1.0000   1.0000   1.0000
     1.0000   1.0000   0.9936   0.9586   0.0302   0.0000   0.0000   0.0000
     0.0000   0.0000   0.0000   0.0000   0.0000   0.0000   0.0000   0.0000
     0.0000   0.0000   0.0000   0.0000   0.0000

          k = 0.4000 0.1994 0.1414 ( 10093 PWs)   bands (ev):

   -48.7062 -48.7056 -48.7051 -48.7045 -23.0228 -23.0183 -23.0100 -23.0012
   -22.9902 -22.9813 -22.9551 -22.9517 -22.9503 -22.9483 -22.9347 -22.9315
   -21.9559 -21.9479 -21.9461 -21.9414  -6.7077  -6.6174  -6.4197  -6.0734
    -5.9648  -5.8664  -5.7545  -5.6737  -5.6173  -5.6164  -5.5705  -5.5331
    -4.0470  -3.9849  -3.9759  -3.9724  -3.9046  -3.8480  -3.8122  -3.7709
    -3.7419  -3.6787  -3.6617  -3.6349   5.6492   5.7215   5.7621   5.8684
     6.1032   6.2071   6.4256   6.5184   6.6992   6.9639   7.0440   7.3233
     7.3499   7.4000   7.4283   7.5249   7.6842   7.6902   7.7328   7.9818
     8.0550   8.6266   8.7213   8.9021   9.0569   9.0860   9.2138   9.2841
     9.2932   9.3154   9.5154   9.5462   9.6253   9.6413  10.0630  10.3073
    12.5725  13.2147  13.8096  13.8144  13.9171  14.4247  14.4712  14.5343
    14.6760  14.7183  14.8183  15.2123  16.3472  16.9121  17.1662  17.3464
    17.3775  17.7413  17.8653  18.0276  18.1793

     occupation numbers 
     1.0000   1.0000   1.0000   1.0000   1.0000   1.0000   1.0000   1.0000
     1.0000   1.0000   1.0000   1.0000   1.0000   1.0000   1.0000   1.0000
     1.0000   1.0000   1.0000   1.0000   1.0000   1.0000   1.0000   1.0000
     1.0000   1.0000   1.0000   1.0000   1.0000   1.0000   1.0000   1.0000
     1.0000   1.0000   1.0000   1.0000   1.0000   1.0000   1.0000   1.0000
     1.0000   1.0000   1.0000   1.0000   1.0000   1.0000   1.0000   1.0000
     1.0000   1.0000   1.0000   1.0000   1.0000   1.0000   1.0000   1.0000
     1.0000   1.0000   1.0000   1.0000   1.0000   1.0000   1.0000   1.0000
     1.0000   1.0000   1.0000   1.0000   1.0000   1.0000   1.0000   1.0000
     1.0000   1.0000   1.0000   1.0000   1.0000   1.0000   1.0000   1.0000
     1.0000   1.0000   0.9318   0.9152   0.0658   0.0000   0.0000   0.0000
     0.0000   0.0000   0.0000   0.0000   0.0000   0.0000   0.0000   0.0000
     0.0000   0.0000   0.0000   0.0000   0.0000

          k = 0.4000 0.1994 0.2829 ( 10093 PWs)   bands (ev):

   -48.7059 -48.7055 -48.7052 -48.7048 -23.0073 -23.0041 -23.0010 -22.9967
   -22.9878 -22.9837 -22.9725 -22.9701 -22.9540 -22.9527 -22.9337 -22.9325
   -21.9528 -21.9491 -21.9459 -21.9434  -6.5809  -6.4673  -6.4446  -6.2344
    -5.8887  -5.7863  -5.7826  -5.7248  -5.7178  -5.6842  -5.5785  -5.5562
    -4.0505  -4.0361  -3.9750  -3.9688  -3.8664  -3.8449  -3.8273  -3.8092
    -3.6942  -3.6747  -3.6637  -3.6633   5.7527   5.7592   6.2720   6.3318
     6.3552   6.4034   6.5209   6.5799   6.7597   6.9189   6.9882   7.0775
     7.1549   7.2457   7.3163   7.4405   7.4510   7.5573   7.6672   7.7629
     7.8795   8.0874   8.5956   8.6830   9.1597   9.2220   9.2566   9.3429
     9.3859   9.4759   9.4789   9.5955   9.6729   9.7520   9.9476  10.0838
    13.1710  13.6406  13.8140  13.8546  13.9647  14.0151  14.2028  14.4011
    14.5746  14.5931  14.6474  14.8763  16.8673  17.0901  17.6350  17.7561
    17.7833  17.9940  18.0213  18.0699  18.2095

     occupation numbers 
     1.0000   1.0000   1.0000   1.0000   1.0000   1.0000   1.0000   1.0000
     1.0000   1.0000   1.0000   1.0000   1.0000   1.0000   1.0000   1.0000
     1.0000   1.0000   1.0000   1.0000   1.0000   1.0000   1.0000   1.0000
     1.0000   1.0000   1.0000   1.0000   1.0000   1.0000   1.0000   1.0000
     1.0000   1.0000   1.0000   1.0000   1.0000   1.0000   1.0000   1.0000
     1.0000   1.0000   1.0000   1.0000   1.0000   1.0000   1.0000   1.0000
     1.0000   1.0000   1.0000   1.0000   1.0000   1.0000   1.0000   1.0000
     1.0000   1.0000   1.0000   1.0000   1.0000   1.0000   1.0000   1.0000
     1.0000   1.0000   1.0000   1.0000   1.0000   1.0000   1.0000   1.0000
     1.0000   1.0000   1.0000   1.0000   1.0000   1.0000   1.0000   1.0000
     1.0000   1.0000   0.9168   0.6009   0.0068   0.0006   0.0000   0.0000
     0.0000   0.0000   0.0000   0.0000   0.0000   0.0000   0.0000   0.0000
     0.0000   0.0000   0.0000   0.0000   0.0000

          k = 0.4000 0.3989 0.0000 ( 10092 PWs)   bands (ev):

   -48.7062 -48.7059 -48.7048 -48.7045 -23.0282 -23.0264 -23.0233 -23.0158
   -23.0092 -23.0017 -22.9411 -22.9405 -22.9334 -22.9299 -22.9256 -22.9221
   -21.9505 -21.9473 -21.9454 -21.9437  -6.8850  -6.8557  -6.3114  -6.1571
    -6.0097  -5.9748  -5.7073  -5.6643  -5.6618  -5.6574  -5.3888  -5.3371
    -3.9603  -3.9558  -3.9475  -3.9373  -3.9202  -3.9092  -3.6982  -3.6913
    -3.6771  -3.6479  -3.5671  -3.5481   5.3825   5.4399   5.5184   5.6101
     5.7263   5.7605   5.7743   5.8107   7.2433   7.2660   7.2665   7.4374
     7.4797   7.8144   7.8562   7.8592   7.8602   7.9523   8.1018   8.1093
     8.1920   8.3930   8.5953   8.6812   8.9169   8.9680   8.9855   9.0385
     9.1832   9.1889   9.4469   9.5759   9.7437   9.7468  10.3544  10.4427
    12.0692  12.3932  14.3649  14.3728  14.4165  14.6038  14.6291  14.6457
    14.7096  14.7188  15.2715  15.4371  15.6995  16.0027  16.8245  17.2217
    17.5624  17.5812  17.8585  17.9422  18.0957

     occupation numbers 
     1.0000   1.0000   1.0000   1.0000   1.0000   1.0000   1.0000   1.0000
     1.0000   1.0000   1.0000   1.0000   1.0000   1.0000   1.0000   1.0000
     1.0000   1.0000   1.0000   1.0000   1.0000   1.0000   1.0000   1.0000
     1.0000   1.0000   1.0000   1.0000   1.0000   1.0000   1.0000   1.0000
     1.0000   1.0000   1.0000   1.0000   1.0000   1.0000   1.0000   1.0000
     1.0000   1.0000   1.0000   1.0000   1.0000   1.0000   1.0000   1.0000
     1.0000   1.0000   1.0000   1.0000   1.0000   1.0000   1.0000   1.0000
     1.0000   1.0000   1.0000   1.0000   1.0000   1.0000   1.0000   1.0000
     1.0000   1.0000   1.0000   1.0000   1.0000   1.0000   1.0000   1.0000
     1.0000   1.0000   1.0000   1.0000   1.0000   1.0000   1.0000   1.0000
     1.0000   1.0000   0.0000   0.0000   0.0000   0.0000   0.0000   0.0000
     0.0000   0.0000   0.0000   0.0000   0.0000   0.0000   0.0000   0.0000
     0.0000   0.0000   0.0000   0.0000   0.0000

          k = 0.4000 0.3989 0.1414 ( 10091 PWs)   bands (ev):

   -48.7060 -48.7058 -48.7049 -48.7047 -23.0220 -23.0201 -23.0183 -23.0145
   -23.0106 -23.0029 -22.9495 -22.9488 -22.9331 -22.9302 -22.9252 -22.9225
   -21.9500 -21.9470 -21.9459 -21.9441  -6.8264  -6.7931  -6.3588  -6.2330
    -5.9795  -5.9433  -5.7206  -5.6835  -5.6633  -5.6290  -5.4290  -5.3703
[...]
    13.0683  13.2375  13.8253  13.9367  14.3888  14.4047  14.5108  14.6575
    14.6832  14.7464  14.7872  14.9953  16.4674  16.7158  16.9057  17.1838
    17.9422  18.2020  18.2052  18.2489  18.3467

     occupation numbers 
     1.0000   1.0000   1.0000   1.0000   1.0000   1.0000   1.0000   1.0000
     1.0000   1.0000   1.0000   1.0000   1.0000   1.0000   1.0000   1.0000
     1.0000   1.0000   1.0000   1.0000   1.0000   1.0000   1.0000   1.0000
     1.0000   1.0000   1.0000   1.0000   1.0000   1.0000   1.0000   1.0000
     1.0000   1.0000   1.0000   1.0000   1.0000   1.0000   1.0000   1.0000
     1.0000   1.0000   1.0000   1.0000   1.0000   1.0000   1.0000   1.0000
     1.0000   1.0000   1.0000   1.0000   1.0000   1.0000   1.0000   1.0000
     1.0000   1.0000   1.0000   1.0000   1.0000   1.0000   1.0000   1.0000
     1.0000   1.0000   1.0000   1.0000   1.0000   1.0000   1.0000   1.0000
     1.0000   1.0000   1.0000   1.0000   1.0000   1.0000   1.0000   1.0000
     1.0000   1.0000   0.8636   0.0263   0.0000   0.0000   0.0000   0.0000
     0.0000   0.0000   0.0000   0.0000   0.0000   0.0000   0.0000   0.0000
     0.0000   0.0000   0.0000   0.0000   0.0000

     the Fermi energy is    13.8629 ev

!    total energy              =   -1324.67830480 Ry
     estimated scf accuracy    <          7.8E-10 Ry
     smearing contrib. (-TS)   =      -0.00121451 Ry
     internal energy E=F+TS    =   -1324.67709029 Ry

     The total energy is F=E-TS. E is the sum of the following terms:
     one-electron contribution =    -306.08661628 Ry
     hartree contribution      =     249.66324490 Ry
     xc contribution           =    -223.35123818 Ry
     ewald contribution        =    -935.64370012 Ry
     one-center paw contrib.   =    -109.25878061 Ry
      -> PAW hartree energy AE =       0.00000000 Ry
      -> PAW hartree energy PS =       0.00000000 Ry
      -> PAW xc energy AE      =       0.00000000 Ry
      -> PAW xc energy PS      =       0.00000000 Ry
      -> total E_H with PAW    =     249.66324490 Ry
      -> total E_XC with PAW   =    -223.35123818 Ry

     convergence has been achieved in  18 iterations

     negative rho (up, down):  2.607E-01 0.000E+00

     Forces acting on atoms (cartesian axes, Ry/au):

     atom    1 type  3   force =     0.00000000    0.00000000    0.00000343
     atom    2 type  3   force =     0.00000000    0.00000000   -0.00000343
     atom    3 type  3   force =     0.00000000    0.00000000   -0.00000343
     atom    4 type  3   force =     0.00000000    0.00000000    0.00000343
     atom    5 type  1   force =     0.00000000    0.00000000    0.00000000
     atom    6 type  1   force =     0.00000000    0.00000000    0.00000000
     atom    7 type  1   force =     0.00000000    0.00000000    0.00000000
     atom    8 type  1   force =     0.00000000    0.00000000    0.00000000
     atom    9 type  2   force =    -0.00000006    0.00000005   -0.00000000
     atom   10 type  2   force =    -0.00000006   -0.00000005    0.00000000
     atom   11 type  2   force =    -0.00000110    0.00000111   -0.00000000
     atom   12 type  2   force =    -0.00000110   -0.00000111   -0.00000000
     atom   13 type  2   force =     0.00000006   -0.00000005   -0.00000000
     atom   14 type  2   force =     0.00000006    0.00000005    0.00000000
     atom   15 type  2   force =     0.00000110   -0.00000111   -0.00000000
     atom   16 type  2   force =     0.00000110    0.00000111   -0.00000000
     atom   17 type  2   force =     0.00000000    0.00000000   -0.00000277
     atom   18 type  2   force =     0.00000000    0.00000000    0.00000277
     atom   19 type  2   force =     0.00000000    0.00000000    0.00000082
     atom   20 type  2   force =     0.00000000    0.00000000   -0.00000082
     The non-local contrib.  to forces
     atom    1 type  3   force =     0.00000000    0.00000000    0.00000360
     atom    2 type  3   force =     0.00000000    0.00000000   -0.00000360
     atom    3 type  3   force =     0.00000000    0.00000000   -0.00000362
     atom    4 type  3   force =     0.00000000    0.00000000    0.00000362
     atom    5 type  1   force =     0.00000000    0.00000000    0.00000000
     atom    6 type  1   force =     0.00000000    0.00000000    0.00000000
     atom    7 type  1   force =     0.00000000    0.00000000    0.00000000
     atom    8 type  1   force =     0.00000000    0.00000000    0.00000000
     atom    9 type  2   force =     0.00000060   -0.00000056    0.00000000
     atom   10 type  2   force =     0.00000060    0.00000056   -0.00000000
     atom   11 type  2   force =    -0.00000061    0.00000065    0.00000000
     atom   12 type  2   force =    -0.00000061   -0.00000065    0.00000000
     atom   13 type  2   force =    -0.00000060    0.00000056   -0.00000000
     atom   14 type  2   force =    -0.00000060   -0.00000056   -0.00000000
     atom   15 type  2   force =     0.00000061   -0.00000065    0.00000000
     atom   16 type  2   force =     0.00000061    0.00000065    0.00000000
     atom   17 type  2   force =     0.00000000    0.00000000   -0.00000199
     atom   18 type  2   force =     0.00000000    0.00000000    0.00000199
     atom   19 type  2   force =     0.00000000    0.00000000    0.00000114
     atom   20 type  2   force =     0.00000000    0.00000000   -0.00000114
     The ionic contribution  to forces
     atom    1 type  3   force =    -0.00000000    0.00000000   -0.00000000
     atom    2 type  3   force =    -0.00000000    0.00000000    0.00000000
     atom    3 type  3   force =     0.00000000   -0.00000000    0.00000000
     atom    4 type  3   force =     0.00000000   -0.00000000   -0.00000000
     atom    5 type  1   force =    -0.00000000   -0.00000000   -0.00000000
     atom    6 type  1   force =    -0.00000000   -0.00000000    0.00000000
     atom    7 type  1   force =    -0.00000000    0.00000000   -0.00000000
     atom    8 type  1   force =    -0.00000000    0.00000000   -0.00000000
     atom    9 type  2   force =    -0.00000000    0.00000000   -0.00000000
     atom   10 type  2   force =    -0.00000000   -0.00000000   -0.00000000
     atom   11 type  2   force =     0.00000000   -0.00000000    0.00000000
     atom   12 type  2   force =     0.00000000    0.00000000    0.00000000
     atom   13 type  2   force =     0.00000000    0.00000000   -0.00000000
     atom   14 type  2   force =     0.00000000    0.00000000   -0.00000000
     atom   15 type  2   force =    -0.00000000    0.00000000    0.00000000
     atom   16 type  2   force =    -0.00000000   -0.00000000    0.00000000
     atom   17 type  2   force =    -0.00000000   -0.00000000   -0.00000000
     atom   18 type  2   force =    -0.00000000   -0.00000000   -0.00000000
     atom   19 type  2   force =     0.00000000    0.00000000   -0.00000000
     atom   20 type  2   force =     0.00000000    0.00000000   -0.00000000
     The local contribution  to forces
     atom    1 type  3   force =     0.00000000    0.00000000    0.00002229
     atom    2 type  3   force =     0.00000000    0.00000000   -0.00002229
     atom    3 type  3   force =     0.00000000    0.00000000   -0.00002233
     atom    4 type  3   force =     0.00000000    0.00000000    0.00002233
     atom    5 type  1   force =     0.00000000    0.00000000   -0.00000000
     atom    6 type  1   force =     0.00000000    0.00000000    0.00000000
     atom    7 type  1   force =     0.00000000    0.00000000    0.00000000
     atom    8 type  1   force =     0.00000000    0.00000000   -0.00000000
     atom    9 type  2   force =     0.00000477   -0.00000488   -0.00000000
     atom   10 type  2   force =     0.00000477    0.00000488   -0.00000000
     atom   11 type  2   force =     0.00000832   -0.00000840    0.00000000
     atom   12 type  2   force =     0.00000832    0.00000840    0.00000000
     atom   13 type  2   force =    -0.00000477    0.00000488   -0.00000000
     atom   14 type  2   force =    -0.00000477   -0.00000488   -0.00000000
     atom   15 type  2   force =    -0.00000832    0.00000840    0.00000000
     atom   16 type  2   force =    -0.00000832   -0.00000840    0.00000000
     atom   17 type  2   force =    -0.00000000    0.00000000    0.00003245
     atom   18 type  2   force =    -0.00000000    0.00000000   -0.00003245
     atom   19 type  2   force =     0.00000000    0.00000000   -0.00001264
     atom   20 type  2   force =     0.00000000    0.00000000    0.00001264
     The core correction contribution to forces
     atom    1 type  3   force =     0.00000000   -0.00000000   -0.00000013
     atom    2 type  3   force =     0.00000000   -0.00000000    0.00000013
     atom    3 type  3   force =     0.00000000    0.00000000    0.00000013
     atom    4 type  3   force =    -0.00000000    0.00000000   -0.00000013
     atom    5 type  1   force =     0.00000000    0.00000000    0.00000000
     atom    6 type  1   force =     0.00000000    0.00000000    0.00000000
     atom    7 type  1   force =     0.00000000    0.00000000    0.00000000
     atom    8 type  1   force =     0.00000000    0.00000000    0.00000000
     atom    9 type  2   force =    -0.00000001    0.00000001    0.00000000
     atom   10 type  2   force =    -0.00000001   -0.00000001    0.00000000
     atom   11 type  2   force =    -0.00000000    0.00000000    0.00000000
     atom   12 type  2   force =    -0.00000000   -0.00000000    0.00000000
     atom   13 type  2   force =     0.00000001   -0.00000001    0.00000000
     atom   14 type  2   force =     0.00000001    0.00000001    0.00000000
     atom   15 type  2   force =     0.00000000   -0.00000000    0.00000000
     atom   16 type  2   force =     0.00000000    0.00000000    0.00000000
     atom   17 type  2   force =     0.00000000    0.00000000   -0.00000000
     atom   18 type  2   force =    -0.00000000   -0.00000000    0.00000000
     atom   19 type  2   force =     0.00000000    0.00000000    0.00000000
     atom   20 type  2   force =     0.00000000   -0.00000000   -0.00000000
     The Hubbard contrib.    to forces
     atom    1 type  3   force =     0.00000000    0.00000000    0.00000000
     atom    2 type  3   force =     0.00000000    0.00000000    0.00000000
     atom    3 type  3   force =     0.00000000    0.00000000    0.00000000
     atom    4 type  3   force =     0.00000000    0.00000000    0.00000000
     atom    5 type  1   force =     0.00000000    0.00000000    0.00000000
     atom    6 type  1   force =     0.00000000    0.00000000    0.00000000
     atom    7 type  1   force =     0.00000000    0.00000000    0.00000000
     atom    8 type  1   force =     0.00000000    0.00000000    0.00000000
     atom    9 type  2   force =     0.00000000    0.00000000    0.00000000
     atom   10 type  2   force =     0.00000000    0.00000000    0.00000000
     atom   11 type  2   force =     0.00000000    0.00000000    0.00000000
     atom   12 type  2   force =     0.00000000    0.00000000    0.00000000
     atom   13 type  2   force =     0.00000000    0.00000000    0.00000000
     atom   14 type  2   force =     0.00000000    0.00000000    0.00000000
     atom   15 type  2   force =     0.00000000    0.00000000    0.00000000
     atom   16 type  2   force =     0.00000000    0.00000000    0.00000000
     atom   17 type  2   force =     0.00000000    0.00000000    0.00000000
     atom   18 type  2   force =     0.00000000    0.00000000    0.00000000
     atom   19 type  2   force =     0.00000000    0.00000000    0.00000000
     atom   20 type  2   force =     0.00000000    0.00000000    0.00000000
     The SCF correction term to forces
     atom    1 type  3   force =    -0.00000000   -0.00000000   -0.00002233
     atom    2 type  3   force =    -0.00000000   -0.00000000    0.00002233
     atom    3 type  3   force =    -0.00000000    0.00000000    0.00002239
     atom    4 type  3   force =    -0.00000000    0.00000000   -0.00002239
     atom    5 type  1   force =     0.00000000   -0.00000000   -0.00000000
     atom    6 type  1   force =     0.00000000   -0.00000000   -0.00000000
     atom    7 type  1   force =    -0.00000000   -0.00000000   -0.00000000
     atom    8 type  1   force =    -0.00000000   -0.00000000   -0.00000000
     atom    9 type  2   force =    -0.00000541    0.00000548    0.00000000
     atom   10 type  2   force =    -0.00000541   -0.00000548   -0.00000000
     atom   11 type  2   force =    -0.00000880    0.00000885   -0.00000000
     atom   12 type  2   force =    -0.00000880   -0.00000885    0.00000000
     atom   13 type  2   force =     0.00000541   -0.00000548   -0.00000000
     atom   14 type  2   force =     0.00000541    0.00000548    0.00000000
     atom   15 type  2   force =     0.00000880   -0.00000885   -0.00000000
     atom   16 type  2   force =     0.00000880    0.00000885   -0.00000000
     atom   17 type  2   force =     0.00000000   -0.00000000   -0.00003323
     atom   18 type  2   force =     0.00000000   -0.00000000    0.00003323
     atom   19 type  2   force =     0.00000000    0.00000000    0.00001231
     atom   20 type  2   force =     0.00000000    0.00000000   -0.00001231

     Total force =     0.000009     Total SCF correction =     0.000073
     SCF correction compared to forces is large: reduce conv_thr to get better values


     Computing stress (Cartesian axis) and pressure


     negative rho (up, down):  2.607E-01 0.000E+00
          total   stress  (Ry/bohr**3)                   (kbar)     P=      -24.77
  -0.00016190   0.00000000   0.00000000          -23.82        0.00        0.00
   0.00000000  -0.00018553   0.00000000            0.00      -27.29        0.00
   0.00000000   0.00000000  -0.00015774            0.00        0.00      -23.20

     kinetic stress (kbar)  26372.17      0.00      0.00
                                0.00  26362.56      0.00
                                0.00      0.00  26354.21

     local   stress (kbar) -11429.53     -0.00     -0.00
                               -0.00 -11441.44      0.00
                               -0.00      0.00 -11550.32

     nonloc. stress (kbar)  10509.81      0.00      0.00
                                0.00  10510.47      0.00
                                0.00      0.00  10509.81

     hartree stress (kbar)   7234.02     -0.00     -0.00
                               -0.00   7241.59     -0.00
                               -0.00     -0.00   7275.00

     exc-cor stress (kbar)  -1575.79      0.00     -0.00
                                0.00  -1575.81      0.00
                               -0.00      0.00  -1575.74

     corecor stress (kbar)  -3927.42     -0.00      0.00
                               -0.00  -3927.42     -0.00
                                0.00     -0.00  -3927.41

     ewald   stress (kbar) -27207.08     -0.00     -0.00
                               -0.00 -27197.25     -0.00
                               -0.00     -0.00 -27108.75

     hubbard stress (kbar)      0.00      0.00      0.00
                                0.00      0.00      0.00
                                0.00      0.00      0.00

     DFT-D   stress (kbar)      0.00      0.00      0.00
                                0.00      0.00      0.00
                                0.00      0.00      0.00

     XDM     stress (kbar)      0.00      0.00      0.00
                                0.00      0.00      0.00
                                0.00      0.00      0.00

     dft-nl  stress (kbar)      0.00      0.00      0.00
                                0.00      0.00      0.00
                                0.00      0.00      0.00

     TS-vdW  stress (kbar)      0.00      0.00      0.00
                                0.00      0.00      0.00
                                0.00      0.00      0.00

     MDB     stress (kbar)      0.00      0.00      0.00
                                0.00      0.00      0.00
                                0.00      0.00      0.00

     3D-RISM stress (kbar)      0.00      0.00      0.00
                                0.00      0.00      0.00
                                0.00      0.00      0.00


     Writing all to output data dir ./out/smo.save/ :
     XML data file, charge density, pseudopotentials, collected wavefunctions

     init_run     :      5.89s CPU      6.49s WALL (       1 calls)
     electrons    :    109.00s CPU    111.30s WALL (       1 calls)
     forces       :      2.89s CPU      3.23s WALL (       1 calls)
     stress       :      3.86s CPU      4.09s WALL (       1 calls)

     Called by init_run:
     wfcinit      :      2.00s CPU      2.09s WALL (       1 calls)
     wfcinit:atom :      0.04s CPU      0.04s WALL (       1 calls)
     wfcinit:wfcr :      1.81s CPU      1.86s WALL (       1 calls)
     potinit      :      1.84s CPU      2.21s WALL (       1 calls)
     hinit0       :      1.77s CPU      1.81s WALL (       1 calls)

     Called by electrons:
     c_bands      :     62.86s CPU     63.68s WALL (      18 calls)
     sum_band     :     15.62s CPU     15.79s WALL (      18 calls)
     v_of_rho     :     22.27s CPU     23.78s WALL (      19 calls)
     v_h          :      0.71s CPU      0.73s WALL (      19 calls)
     v_xc         :     23.48s CPU     25.34s WALL (      21 calls)
     newd         :      2.24s CPU      2.25s WALL (      19 calls)
     PAW_pot      :      2.24s CPU      2.25s WALL (      19 calls)
     mix_rho      :      1.10s CPU      1.11s WALL (      18 calls)

     Called by c_bands:
     init_us_2    :      3.06s CPU      3.15s WALL (      38 calls)
     cegterg      :     53.02s CPU     53.79s WALL (      18 calls)

     Called by sum_band:
     sum_band:wei :      0.01s CPU      0.01s WALL (      18 calls)
     sum_band:loo :     10.02s CPU     10.03s WALL (      18 calls)
     sum_band:buf :      0.00s CPU      0.00s WALL (      18 calls)
     sum_band:ini :      1.53s CPU      1.53s WALL (      18 calls)
     sum_band:cal :      1.18s CPU      1.18s WALL (      18 calls)
     sum_band:bec :      0.01s CPU      0.01s WALL (      18 calls)
     addusdens    :      1.91s CPU      1.96s WALL (      18 calls)
                                        0.00s GPU  (      18 calls)
     addusd:skk   :      0.04s CPU      0.04s WALL (      36 calls)
                                        0.00s GPU  (      36 calls)

     Called by *egterg:
     cdiaghg      :      1.84s CPU      1.84s WALL (      99 calls)
     cegterg:over :      2.84s CPU      2.84s WALL (      81 calls)
     cegterg:upda :      1.78s CPU      1.80s WALL (      81 calls)
     cegterg:last :      3.65s CPU      3.65s WALL (      32 calls)
     h_psi        :     39.67s CPU     39.92s WALL (     100 calls)
     s_psi        :      2.89s CPU      2.89s WALL (     100 calls)
     g_psi        :      0.27s CPU      0.28s WALL (      81 calls)

     Called by h_psi:
     h_psi:calbec :      3.03s CPU      3.06s WALL (     100 calls)
     vloc_psi     :     33.23s CPU     33.26s WALL (     100 calls)
                                        0.00s GPU  (     100 calls)
     add_vuspsi   :      3.04s CPU      3.04s WALL (     100 calls)

     General routines
     calbec       :      5.46s CPU      5.50s WALL (     135 calls)
     fft          :     10.11s CPU     10.14s WALL (     270 calls)
     ffts         :      0.51s CPU      0.51s WALL (      37 calls)
     fftw         :     37.26s CPU     37.29s WALL (   10010 calls)
     interpolate  :      2.01s CPU      2.03s WALL (      19 calls)

     Parallel routines

     PAW routines
     PAW_pot      :      2.24s CPU      2.25s WALL (      19 calls)
     PAW_symme    :      0.02s CPU      0.03s WALL (      37 calls)

     PWSCF        :   2m 1.93s CPU   2m 5.56s WALL


   This run was terminated on:  10:49:12   5Jun2025            

=------------------------------------------------------------------------------=
   JOB DONE.
=------------------------------------------------------------------------------=
