
     Program PWSCF v.7.4 starts on  5Jun2025 at 15:40:36 
        Git branch: develop
        Last git commit: 621a13ae07f0aef1eb4ac4d6dc5b2414247e738f
        Last git commit date: Thu Dec 5 08:24:25 2024 +0000
        Last git commit subject: Merge branch 'wavefunction_module' into 'develop'

     This program is part of the open-source Quantum ESPRESSO suite
     for quantum simulation of materials; please cite
         "P. Giannozzi et al., J. Phys.:Condens. Matter 21 395502 (2009);
         "P. Giannozzi et al., J. Phys.:Condens. Matter 29 465901 (2017);
         "P. Giannozzi et al., J. Chem. Phys. 152 154105 (2020);
          URL http://www.quantum-espresso.org", 
     in publications or presentations arising from this work. More details at
     http://www.quantum-espresso.org/quote

     Parallel version (MPI), running on    64 processors

     MPI processes distributed on     1 nodes
     212290 MiB available memory on the printing compute node when the environment starts

     Waiting for input...
     Reading input from standard input

     Current dimensions of program PWSCF are:
     Max number of different atomic species (ntypx) = 10
     Max number of k-points (npk) =  40000
     Max angular momentum in pseudopotentials (lmaxx) =  4
     file O.pbesol-n-kjpaw_psl.0.1.UPF: wavefunction(s)  2P renormalized

     Atomic positions and unit cell read from directory:
     ./out/smo.save/

     Found identity + (  0.0000  0.0000 -0.5000) symmetry
     This is a supercell, fractional translations are disabled

     K-points division:     npool     =      64
     Subspace diagonalization in iterative solution of the eigenvalue problem:
     a serial algorithm will be used


     G-vector sticks info
     --------------------
     sticks:   dense  smooth     PW     G-vecs:    dense   smooth      PW
     Sum        3577    1789    553               228283    80627   13653

     Using Slab Decomposition



     bravais-lattice index     =            0
     lattice parameter (alat)  =      10.5994  a.u.
     unit-cell volume          =    1688.5382 (a.u.)^3
     number of atoms/cell      =           20
     number of atomic types    =            3
     number of electrons       =       168.00
     number of Kohn-Sham states=          101
     kinetic-energy cutoff     =      50.0000  Ry
     charge density cutoff     =     400.0000  Ry
     Exchange-correlation= SLA  PW   PSX  PSC
                           (   1   4  10   8   0   0   0)

     celldm(1)=  10.599398  celldm(2)=   0.000000  celldm(3)=   0.000000
     celldm(4)=   0.000000  celldm(5)=   0.000000  celldm(6)=   0.000000

     crystal axes: (cart. coord. in units of alat)
               a(1) = (   1.000000   0.000000   0.000000 )  
               a(2) = (   0.000000   1.002817   0.000000 )  
               a(3) = (   0.000000   0.000000   1.413988 )  

     reciprocal axes: (cart. coord. in units 2 pi/alat)
               b(1) = (  1.000000  0.000000  0.000000 )  
               b(2) = (  0.000000  0.997191  0.000000 )  
               b(3) = (  0.000000  0.000000  0.707220 )  


     PseudoPot. # 1 for Mo read from file:
     ../pseudo/Mo_ONCV_PBEsol-1.0.upf
     MD5 check sum: 5193ba6a20874d27c2ef80314d1b3445
     Pseudo is Norm-conserving, Zval = 14.0
     Generated using ONCVPSP code by D. R. Hamann
     Using radial grid of 1508 points,  6 beta functions with: 
                l(1) =   0
                l(2) =   0
                l(3) =   1
                l(4) =   1
                l(5) =   2
                l(6) =   2

     PseudoPot. # 2 for O  read from file:
     ../pseudo/O.pbesol-n-kjpaw_psl.0.1.UPF
     MD5 check sum: 81d73d1479e654e5638b0319f0d6c2c7
     Pseudo is Projector augmented-wave + core cor, Zval =  6.0
     Generated using "atomic" code by A. Dal Corso  v.6.0 svn rev. 13079
     Shape of augmentation charge: BESSEL
     Using radial grid of 1095 points,  4 beta functions with: 
                l(1) =   0
                l(2) =   0
                l(3) =   1
                l(4) =   1
     Q(r) pseudized with 0 coefficients 


     PseudoPot. # 3 for Sr read from file:
     ../pseudo/sr_pbesol_v1.uspp.F.UPF
     MD5 check sum: 635bff1625df5273dba4129a01ed8c82
     Pseudo is Ultrasoft + core correction, Zval = 10.0
     Generated by new atomic code, or converted to UPF format
     Using radial grid of  883 points,  6 beta functions with: 
                l(1) =   0
                l(2) =   0
                l(3) =   1
                l(4) =   1
                l(5) =   2
                l(6) =   2
     Q(r) pseudized with  6 coefficients,  rinner =    1.400   1.400   1.400
                                                       1.400   1.400

     atomic species   valence    mass     pseudopotential
     Mo               14.00    95.96000     Mo( 1.00)
     O                 6.00    15.99940     O ( 1.00)
     Sr               10.00    87.62000     Sr( 1.00)

     No symmetry found


                                    s                        frac. trans.

      isym =  1     identity                                     

 cryst.   s( 1) = (     1          0          0      )
                  (     0          1          0      )
                  (     0          0          1      )

 cart.    s( 1) = (  1.0000000  0.0000000  0.0000000 )
                  (  0.0000000  1.0000000  0.0000000 )
                  (  0.0000000  0.0000000  1.0000000 )


   Cartesian axes

     site n.     atom                  positions (alat units)
         1        Sr     tau(   1) = (   0.0000000   0.5014085   0.3534969  )
         2        Sr     tau(   2) = (   0.0000000   0.5014085   1.0604907  )
         3        Sr     tau(   3) = (   0.5000000   0.0000000   1.0604907  )
         4        Sr     tau(   4) = (   0.5000000   0.0000000   0.3534969  )
         5        Mo     tau(   5) = (   0.0000000   0.0000000   0.0000000  )
         6        Mo     tau(   6) = (   0.0000000   0.0000000   0.7069938  )
         7        Mo     tau(   7) = (   0.5000000   0.5014085   0.7069938  )
         8        Mo     tau(   8) = (   0.5000000   0.5014085   0.0000000  )
         9        O      tau(   9) = (   0.2500000   0.7521127   0.0000000  )
        10        O      tau(  10) = (   0.2500000   0.2507042   0.0000000  )
        11        O      tau(  11) = (   0.7500000   0.2507042   0.7069938  )
        12        O      tau(  12) = (   0.7500000   0.7521127   0.7069938  )
        13        O      tau(  13) = (   0.7500000   0.2507042   0.0000000  )
        14        O      tau(  14) = (   0.7500000   0.7521127   0.0000000  )
        15        O      tau(  15) = (   0.2500000   0.7521127   0.7069938  )
        16        O      tau(  16) = (   0.2500000   0.2507042   0.7069938  )
        17        O      tau(  17) = (   0.0000000   0.0000000   0.3534969  )
        18        O      tau(  18) = (   0.0000000   0.0000000   1.0604907  )
        19        O      tau(  19) = (   0.5000000   0.5014085   1.0604907  )
        20        O      tau(  20) = (   0.5000000   0.5014085   0.3534969  )

   Crystallographic axes

     site n.     atom                  positions (cryst. coord.)
         1        Sr     tau(   1) = (  0.0000000  0.5000000  0.2500000  )
         2        Sr     tau(   2) = (  0.0000000  0.5000000  0.7500000  )
         3        Sr     tau(   3) = (  0.5000000  0.0000000  0.7500000  )
         4        Sr     tau(   4) = (  0.5000000  0.0000000  0.2500000  )
         5        Mo     tau(   5) = (  0.0000000  0.0000000  0.0000000  )
         6        Mo     tau(   6) = (  0.0000000  0.0000000  0.5000000  )
         7        Mo     tau(   7) = (  0.5000000  0.5000000  0.5000000  )
         8        Mo     tau(   8) = (  0.5000000  0.5000000  0.0000000  )
         9        O      tau(   9) = (  0.2500000  0.7500000  0.0000000  )
        10        O      tau(  10) = (  0.2500000  0.2500000  0.0000000  )
        11        O      tau(  11) = (  0.7500000  0.2500000  0.5000000  )
        12        O      tau(  12) = (  0.7500000  0.7500000  0.5000000  )
        13        O      tau(  13) = (  0.7500000  0.2500000  0.0000000  )
        14        O      tau(  14) = (  0.7500000  0.7500000  0.0000000  )
        15        O      tau(  15) = (  0.2500000  0.7500000  0.5000000  )
        16        O      tau(  16) = (  0.2500000  0.2500000  0.5000000  )
        17        O      tau(  17) = (  0.0000000  0.0000000  0.2500000  )
        18        O      tau(  18) = (  0.0000000  0.0000000  0.7500000  )
        19        O      tau(  19) = (  0.5000000  0.5000000  0.7500000  )
        20        O      tau(  20) = (  0.5000000  0.5000000  0.2500000  )

     number of k points=   125  Fermi-Dirac smearing, width (Ry)=  0.0015
                       cart. coord. in units 2pi/alat
        k(    1) = (   0.0000000   0.0000000   0.0000000), wk =   0.0160000
        k(    2) = (   0.0000000   0.0000000   0.1414440), wk =   0.0160000
        k(    3) = (   0.0000000   0.0000000   0.2828879), wk =   0.0160000
        k(    4) = (   0.0000000   0.0000000   0.4243319), wk =   0.0160000
        k(    5) = (   0.0000000   0.0000000   0.5657758), wk =   0.0160000
        k(    6) = (   0.0000000   0.1994382   0.0000000), wk =   0.0160000
        k(    7) = (   0.0000000   0.1994382   0.1414440), wk =   0.0160000
        k(    8) = (   0.0000000   0.1994382   0.2828879), wk =   0.0160000
        k(    9) = (   0.0000000   0.1994382   0.4243319), wk =   0.0160000
        k(   10) = (   0.0000000   0.1994382   0.5657758), wk =   0.0160000
        k(   11) = (   0.0000000   0.3988764   0.0000000), wk =   0.0160000
        k(   12) = (   0.0000000   0.3988764   0.1414440), wk =   0.0160000
        k(   13) = (   0.0000000   0.3988764   0.2828879), wk =   0.0160000
        k(   14) = (   0.0000000   0.3988764   0.4243319), wk =   0.0160000
        k(   15) = (   0.0000000   0.3988764   0.5657758), wk =   0.0160000
        k(   16) = (   0.0000000   0.5983146   0.0000000), wk =   0.0160000
        k(   17) = (   0.0000000   0.5983146   0.1414440), wk =   0.0160000
        k(   18) = (   0.0000000   0.5983146   0.2828879), wk =   0.0160000
        k(   19) = (   0.0000000   0.5983146   0.4243319), wk =   0.0160000
        k(   20) = (   0.0000000   0.5983146   0.5657758), wk =   0.0160000
        k(   21) = (   0.0000000   0.7977528   0.0000000), wk =   0.0160000
        k(   22) = (   0.0000000   0.7977528   0.1414440), wk =   0.0160000
        k(   23) = (   0.0000000   0.7977528   0.2828879), wk =   0.0160000
        k(   24) = (   0.0000000   0.7977528   0.4243319), wk =   0.0160000
        k(   25) = (   0.0000000   0.7977528   0.5657758), wk =   0.0160000
        k(   26) = (   0.2000000   0.0000000   0.0000000), wk =   0.0160000
        k(   27) = (   0.2000000   0.0000000   0.1414440), wk =   0.0160000
        k(   28) = (   0.2000000   0.0000000   0.2828879), wk =   0.0160000
        k(   29) = (   0.2000000   0.0000000   0.4243319), wk =   0.0160000
        k(   30) = (   0.2000000   0.0000000   0.5657758), wk =   0.0160000
        k(   31) = (   0.2000000   0.1994382   0.0000000), wk =   0.0160000
        k(   32) = (   0.2000000   0.1994382   0.1414440), wk =   0.0160000
        k(   33) = (   0.2000000   0.1994382   0.2828879), wk =   0.0160000
        k(   34) = (   0.2000000   0.1994382   0.4243319), wk =   0.0160000
        k(   35) = (   0.2000000   0.1994382   0.5657758), wk =   0.0160000
        k(   36) = (   0.2000000   0.3988764   0.0000000), wk =   0.0160000
        k(   37) = (   0.2000000   0.3988764   0.1414440), wk =   0.0160000
        k(   38) = (   0.2000000   0.3988764   0.2828879), wk =   0.0160000
        k(   39) = (   0.2000000   0.3988764   0.4243319), wk =   0.0160000
        k(   40) = (   0.2000000   0.3988764   0.5657758), wk =   0.0160000
        k(   41) = (   0.2000000   0.5983146   0.0000000), wk =   0.0160000
        k(   42) = (   0.2000000   0.5983146   0.1414440), wk =   0.0160000
        k(   43) = (   0.2000000   0.5983146   0.2828879), wk =   0.0160000
        k(   44) = (   0.2000000   0.5983146   0.4243319), wk =   0.0160000
        k(   45) = (   0.2000000   0.5983146   0.5657758), wk =   0.0160000
        k(   46) = (   0.2000000   0.7977528   0.0000000), wk =   0.0160000
        k(   47) = (   0.2000000   0.7977528   0.1414440), wk =   0.0160000
        k(   48) = (   0.2000000   0.7977528   0.2828879), wk =   0.0160000
        k(   49) = (   0.2000000   0.7977528   0.4243319), wk =   0.0160000
        k(   50) = (   0.2000000   0.7977528   0.5657758), wk =   0.0160000
        k(   51) = (   0.4000000   0.0000000   0.0000000), wk =   0.0160000
        k(   52) = (   0.4000000   0.0000000   0.1414440), wk =   0.0160000
        k(   53) = (   0.4000000   0.0000000   0.2828879), wk =   0.0160000
        k(   54) = (   0.4000000   0.0000000   0.4243319), wk =   0.0160000
        k(   55) = (   0.4000000   0.0000000   0.5657758), wk =   0.0160000
        k(   56) = (   0.4000000   0.1994382   0.0000000), wk =   0.0160000
        k(   57) = (   0.4000000   0.1994382   0.1414440), wk =   0.0160000
        k(   58) = (   0.4000000   0.1994382   0.2828879), wk =   0.0160000
        k(   59) = (   0.4000000   0.1994382   0.4243319), wk =   0.0160000
        k(   60) = (   0.4000000   0.1994382   0.5657758), wk =   0.0160000
        k(   61) = (   0.4000000   0.3988764   0.0000000), wk =   0.0160000
        k(   62) = (   0.4000000   0.3988764   0.1414440), wk =   0.0160000
        k(   63) = (   0.4000000   0.3988764   0.2828879), wk =   0.0160000
        k(   64) = (   0.4000000   0.3988764   0.4243319), wk =   0.0160000
        k(   65) = (   0.4000000   0.3988764   0.5657758), wk =   0.0160000
        k(   66) = (   0.4000000   0.5983146   0.0000000), wk =   0.0160000
        k(   67) = (   0.4000000   0.5983146   0.1414440), wk =   0.0160000
        k(   68) = (   0.4000000   0.5983146   0.2828879), wk =   0.0160000
        k(   69) = (   0.4000000   0.5983146   0.4243319), wk =   0.0160000
        k(   70) = (   0.4000000   0.5983146   0.5657758), wk =   0.0160000
        k(   71) = (   0.4000000   0.7977528   0.0000000), wk =   0.0160000
        k(   72) = (   0.4000000   0.7977528   0.1414440), wk =   0.0160000
        k(   73) = (   0.4000000   0.7977528   0.2828879), wk =   0.0160000
        k(   74) = (   0.4000000   0.7977528   0.4243319), wk =   0.0160000
        k(   75) = (   0.4000000   0.7977528   0.5657758), wk =   0.0160000
        k(   76) = (   0.6000000   0.0000000   0.0000000), wk =   0.0160000
        k(   77) = (   0.6000000   0.0000000   0.1414440), wk =   0.0160000
        k(   78) = (   0.6000000   0.0000000   0.2828879), wk =   0.0160000
        k(   79) = (   0.6000000   0.0000000   0.4243319), wk =   0.0160000
        k(   80) = (   0.6000000   0.0000000   0.5657758), wk =   0.0160000
        k(   81) = (   0.6000000   0.1994382   0.0000000), wk =   0.0160000
        k(   82) = (   0.6000000   0.1994382   0.1414440), wk =   0.0160000
        k(   83) = (   0.6000000   0.1994382   0.2828879), wk =   0.0160000
        k(   84) = (   0.6000000   0.1994382   0.4243319), wk =   0.0160000
        k(   85) = (   0.6000000   0.1994382   0.5657758), wk =   0.0160000
        k(   86) = (   0.6000000   0.3988764   0.0000000), wk =   0.0160000
        k(   87) = (   0.6000000   0.3988764   0.1414440), wk =   0.0160000
        k(   88) = (   0.6000000   0.3988764   0.2828879), wk =   0.0160000
        k(   89) = (   0.6000000   0.3988764   0.4243319), wk =   0.0160000
        k(   90) = (   0.6000000   0.3988764   0.5657758), wk =   0.0160000
        k(   91) = (   0.6000000   0.5983146   0.0000000), wk =   0.0160000
        k(   92) = (   0.6000000   0.5983146   0.1414440), wk =   0.0160000
        k(   93) = (   0.6000000   0.5983146   0.2828879), wk =   0.0160000
        k(   94) = (   0.6000000   0.5983146   0.4243319), wk =   0.0160000
        k(   95) = (   0.6000000   0.5983146   0.5657758), wk =   0.0160000
        k(   96) = (   0.6000000   0.7977528   0.0000000), wk =   0.0160000
        k(   97) = (   0.6000000   0.7977528   0.1414440), wk =   0.0160000
        k(   98) = (   0.6000000   0.7977528   0.2828879), wk =   0.0160000
        k(   99) = (   0.6000000   0.7977528   0.4243319), wk =   0.0160000
        k(  100) = (   0.6000000   0.7977528   0.5657758), wk =   0.0160000
        k(  101) = (   0.8000000   0.0000000   0.0000000), wk =   0.0160000
        k(  102) = (   0.8000000   0.0000000   0.1414440), wk =   0.0160000
        k(  103) = (   0.8000000   0.0000000   0.2828879), wk =   0.0160000
        k(  104) = (   0.8000000   0.0000000   0.4243319), wk =   0.0160000
        k(  105) = (   0.8000000   0.0000000   0.5657758), wk =   0.0160000
        k(  106) = (   0.8000000   0.1994382   0.0000000), wk =   0.0160000
        k(  107) = (   0.8000000   0.1994382   0.1414440), wk =   0.0160000
        k(  108) = (   0.8000000   0.1994382   0.2828879), wk =   0.0160000
        k(  109) = (   0.8000000   0.1994382   0.4243319), wk =   0.0160000
        k(  110) = (   0.8000000   0.1994382   0.5657758), wk =   0.0160000
        k(  111) = (   0.8000000   0.3988764   0.0000000), wk =   0.0160000
        k(  112) = (   0.8000000   0.3988764   0.1414440), wk =   0.0160000
        k(  113) = (   0.8000000   0.3988764   0.2828879), wk =   0.0160000
        k(  114) = (   0.8000000   0.3988764   0.4243319), wk =   0.0160000
        k(  115) = (   0.8000000   0.3988764   0.5657758), wk =   0.0160000
        k(  116) = (   0.8000000   0.5983146   0.0000000), wk =   0.0160000
        k(  117) = (   0.8000000   0.5983146   0.1414440), wk =   0.0160000
        k(  118) = (   0.8000000   0.5983146   0.2828879), wk =   0.0160000
        k(  119) = (   0.8000000   0.5983146   0.4243319), wk =   0.0160000
        k(  120) = (   0.8000000   0.5983146   0.5657758), wk =   0.0160000
        k(  121) = (   0.8000000   0.7977528   0.0000000), wk =   0.0160000
        k(  122) = (   0.8000000   0.7977528   0.1414440), wk =   0.0160000
        k(  123) = (   0.8000000   0.7977528   0.2828879), wk =   0.0160000
        k(  124) = (   0.8000000   0.7977528   0.4243319), wk =   0.0160000
        k(  125) = (   0.8000000   0.7977528   0.5657758), wk =   0.0160000

                       cryst. coord.
        k(    1) = (   0.0000000   0.0000000   0.0000000), wk =   0.0160000
        k(    2) = (   0.0000000   0.0000000   0.2000000), wk =   0.0160000
        k(    3) = (   0.0000000   0.0000000   0.4000000), wk =   0.0160000
        k(    4) = (   0.0000000   0.0000000   0.6000000), wk =   0.0160000
        k(    5) = (   0.0000000   0.0000000   0.8000000), wk =   0.0160000
        k(    6) = (   0.0000000   0.2000000   0.0000000), wk =   0.0160000
        k(    7) = (   0.0000000   0.2000000   0.2000000), wk =   0.0160000
        k(    8) = (   0.0000000   0.2000000   0.4000000), wk =   0.0160000
        k(    9) = (   0.0000000   0.2000000   0.6000000), wk =   0.0160000
        k(   10) = (   0.0000000   0.2000000   0.8000000), wk =   0.0160000
        k(   11) = (   0.0000000   0.4000000   0.0000000), wk =   0.0160000
        k(   12) = (   0.0000000   0.4000000   0.2000000), wk =   0.0160000
        k(   13) = (   0.0000000   0.4000000   0.4000000), wk =   0.0160000
        k(   14) = (   0.0000000   0.4000000   0.6000000), wk =   0.0160000
        k(   15) = (   0.0000000   0.4000000   0.8000000), wk =   0.0160000
        k(   16) = (   0.0000000   0.6000000   0.0000000), wk =   0.0160000
        k(   17) = (   0.0000000   0.6000000   0.2000000), wk =   0.0160000
        k(   18) = (   0.0000000   0.6000000   0.4000000), wk =   0.0160000
        k(   19) = (   0.0000000   0.6000000   0.6000000), wk =   0.0160000
        k(   20) = (   0.0000000   0.6000000   0.8000000), wk =   0.0160000
        k(   21) = (   0.0000000   0.8000000   0.0000000), wk =   0.0160000
        k(   22) = (   0.0000000   0.8000000   0.2000000), wk =   0.0160000
        k(   23) = (   0.0000000   0.8000000   0.4000000), wk =   0.0160000
        k(   24) = (   0.0000000   0.8000000   0.6000000), wk =   0.0160000
        k(   25) = (   0.0000000   0.8000000   0.8000000), wk =   0.0160000
        k(   26) = (   0.2000000   0.0000000   0.0000000), wk =   0.0160000
        k(   27) = (   0.2000000   0.0000000   0.2000000), wk =   0.0160000
        k(   28) = (   0.2000000   0.0000000   0.4000000), wk =   0.0160000
        k(   29) = (   0.2000000   0.0000000   0.6000000), wk =   0.0160000
        k(   30) = (   0.2000000   0.0000000   0.8000000), wk =   0.0160000
        k(   31) = (   0.2000000   0.2000000   0.0000000), wk =   0.0160000
        k(   32) = (   0.2000000   0.2000000   0.2000000), wk =   0.0160000
        k(   33) = (   0.2000000   0.2000000   0.4000000), wk =   0.0160000
        k(   34) = (   0.2000000   0.2000000   0.6000000), wk =   0.0160000
        k(   35) = (   0.2000000   0.2000000   0.8000000), wk =   0.0160000
        k(   36) = (   0.2000000   0.4000000   0.0000000), wk =   0.0160000
        k(   37) = (   0.2000000   0.4000000   0.2000000), wk =   0.0160000
        k(   38) = (   0.2000000   0.4000000   0.4000000), wk =   0.0160000
        k(   39) = (   0.2000000   0.4000000   0.6000000), wk =   0.0160000
        k(   40) = (   0.2000000   0.4000000   0.8000000), wk =   0.0160000
        k(   41) = (   0.2000000   0.6000000   0.0000000), wk =   0.0160000
        k(   42) = (   0.2000000   0.6000000   0.2000000), wk =   0.0160000
        k(   43) = (   0.2000000   0.6000000   0.4000000), wk =   0.0160000
        k(   44) = (   0.2000000   0.6000000   0.6000000), wk =   0.0160000
        k(   45) = (   0.2000000   0.6000000   0.8000000), wk =   0.0160000
        k(   46) = (   0.2000000   0.8000000   0.0000000), wk =   0.0160000
        k(   47) = (   0.2000000   0.8000000   0.2000000), wk =   0.0160000
        k(   48) = (   0.2000000   0.8000000   0.4000000), wk =   0.0160000
        k(   49) = (   0.2000000   0.8000000   0.6000000), wk =   0.0160000
        k(   50) = (   0.2000000   0.8000000   0.8000000), wk =   0.0160000
        k(   51) = (   0.4000000   0.0000000   0.0000000), wk =   0.0160000
        k(   52) = (   0.4000000   0.0000000   0.2000000), wk =   0.0160000
        k(   53) = (   0.4000000   0.0000000   0.4000000), wk =   0.0160000
        k(   54) = (   0.4000000   0.0000000   0.6000000), wk =   0.0160000
        k(   55) = (   0.4000000   0.0000000   0.8000000), wk =   0.0160000
        k(   56) = (   0.4000000   0.2000000   0.0000000), wk =   0.0160000
        k(   57) = (   0.4000000   0.2000000   0.2000000), wk =   0.0160000
        k(   58) = (   0.4000000   0.2000000   0.4000000), wk =   0.0160000
        k(   59) = (   0.4000000   0.2000000   0.6000000), wk =   0.0160000
        k(   60) = (   0.4000000   0.2000000   0.8000000), wk =   0.0160000
        k(   61) = (   0.4000000   0.4000000   0.0000000), wk =   0.0160000
        k(   62) = (   0.4000000   0.4000000   0.2000000), wk =   0.0160000
        k(   63) = (   0.4000000   0.4000000   0.4000000), wk =   0.0160000
        k(   64) = (   0.4000000   0.4000000   0.6000000), wk =   0.0160000
        k(   65) = (   0.4000000   0.4000000   0.8000000), wk =   0.0160000
        k(   66) = (   0.4000000   0.6000000   0.0000000), wk =   0.0160000
        k(   67) = (   0.4000000   0.6000000   0.2000000), wk =   0.0160000
        k(   68) = (   0.4000000   0.6000000   0.4000000), wk =   0.0160000
        k(   69) = (   0.4000000   0.6000000   0.6000000), wk =   0.0160000
        k(   70) = (   0.4000000   0.6000000   0.8000000), wk =   0.0160000
        k(   71) = (   0.4000000   0.8000000   0.0000000), wk =   0.0160000
        k(   72) = (   0.4000000   0.8000000   0.2000000), wk =   0.0160000
        k(   73) = (   0.4000000   0.8000000   0.4000000), wk =   0.0160000
        k(   74) = (   0.4000000   0.8000000   0.6000000), wk =   0.0160000
        k(   75) = (   0.4000000   0.8000000   0.8000000), wk =   0.0160000
        k(   76) = (   0.6000000   0.0000000   0.0000000), wk =   0.0160000
        k(   77) = (   0.6000000   0.0000000   0.2000000), wk =   0.0160000
        k(   78) = (   0.6000000   0.0000000   0.4000000), wk =   0.0160000
        k(   79) = (   0.6000000   0.0000000   0.6000000), wk =   0.0160000
        k(   80) = (   0.6000000   0.0000000   0.8000000), wk =   0.0160000
        k(   81) = (   0.6000000   0.2000000   0.0000000), wk =   0.0160000
        k(   82) = (   0.6000000   0.2000000   0.2000000), wk =   0.0160000
        k(   83) = (   0.6000000   0.2000000   0.4000000), wk =   0.0160000
        k(   84) = (   0.6000000   0.2000000   0.6000000), wk =   0.0160000
        k(   85) = (   0.6000000   0.2000000   0.8000000), wk =   0.0160000
        k(   86) = (   0.6000000   0.4000000   0.0000000), wk =   0.0160000
        k(   87) = (   0.6000000   0.4000000   0.2000000), wk =   0.0160000
        k(   88) = (   0.6000000   0.4000000   0.4000000), wk =   0.0160000
        k(   89) = (   0.6000000   0.4000000   0.6000000), wk =   0.0160000
        k(   90) = (   0.6000000   0.4000000   0.8000000), wk =   0.0160000
        k(   91) = (   0.6000000   0.6000000   0.0000000), wk =   0.0160000
        k(   92) = (   0.6000000   0.6000000   0.2000000), wk =   0.0160000
        k(   93) = (   0.6000000   0.6000000   0.4000000), wk =   0.0160000
        k(   94) = (   0.6000000   0.6000000   0.6000000), wk =   0.0160000
        k(   95) = (   0.6000000   0.6000000   0.8000000), wk =   0.0160000
        k(   96) = (   0.6000000   0.8000000   0.0000000), wk =   0.0160000
        k(   97) = (   0.6000000   0.8000000   0.2000000), wk =   0.0160000
        k(   98) = (   0.6000000   0.8000000   0.4000000), wk =   0.0160000
        k(   99) = (   0.6000000   0.8000000   0.6000000), wk =   0.0160000
        k(  100) = (   0.6000000   0.8000000   0.8000000), wk =   0.0160000
        k(  101) = (   0.8000000   0.0000000   0.0000000), wk =   0.0160000
        k(  102) = (   0.8000000   0.0000000   0.2000000), wk =   0.0160000
        k(  103) = (   0.8000000   0.0000000   0.4000000), wk =   0.0160000
        k(  104) = (   0.8000000   0.0000000   0.6000000), wk =   0.0160000
        k(  105) = (   0.8000000   0.0000000   0.8000000), wk =   0.0160000
        k(  106) = (   0.8000000   0.2000000   0.0000000), wk =   0.0160000
        k(  107) = (   0.8000000   0.2000000   0.2000000), wk =   0.0160000
        k(  108) = (   0.8000000   0.2000000   0.4000000), wk =   0.0160000
        k(  109) = (   0.8000000   0.2000000   0.6000000), wk =   0.0160000
        k(  110) = (   0.8000000   0.2000000   0.8000000), wk =   0.0160000
        k(  111) = (   0.8000000   0.4000000   0.0000000), wk =   0.0160000
        k(  112) = (   0.8000000   0.4000000   0.2000000), wk =   0.0160000
        k(  113) = (   0.8000000   0.4000000   0.4000000), wk =   0.0160000
        k(  114) = (   0.8000000   0.4000000   0.6000000), wk =   0.0160000
        k(  115) = (   0.8000000   0.4000000   0.8000000), wk =   0.0160000
        k(  116) = (   0.8000000   0.6000000   0.0000000), wk =   0.0160000
        k(  117) = (   0.8000000   0.6000000   0.2000000), wk =   0.0160000
        k(  118) = (   0.8000000   0.6000000   0.4000000), wk =   0.0160000
        k(  119) = (   0.8000000   0.6000000   0.6000000), wk =   0.0160000
        k(  120) = (   0.8000000   0.6000000   0.8000000), wk =   0.0160000
        k(  121) = (   0.8000000   0.8000000   0.0000000), wk =   0.0160000
        k(  122) = (   0.8000000   0.8000000   0.2000000), wk =   0.0160000
        k(  123) = (   0.8000000   0.8000000   0.4000000), wk =   0.0160000
        k(  124) = (   0.8000000   0.8000000   0.6000000), wk =   0.0160000
        k(  125) = (   0.8000000   0.8000000   0.8000000), wk =   0.0160000

     Dense  grid:   228283 G-vectors     FFT dimensions: (  72,  72,  96)

     Smooth grid:    80627 G-vectors     FFT dimensions: (  48,  48,  72)

     Dynamical RAM for                 wfc:      15.54 MB

     Dynamical RAM for     wfc (w. buffer):      15.54 MB

     Dynamical RAM for           str. fact:      10.45 MB

     Dynamical RAM for           local pot:       0.00 MB

     Dynamical RAM for          nlocal pot:      36.92 MB

     Dynamical RAM for                qrad:       4.82 MB

     Dynamical RAM for          rho,v,vnew:      21.84 MB

     Dynamical RAM for           G-vectors:      13.68 MB

     Dynamical RAM for          h,s,v(r/c):       1.87 MB

     Dynamical RAM for          <psi|beta>:       0.37 MB

     Dynamical RAM for                 psi:      31.07 MB

     Dynamical RAM for                hpsi:      31.07 MB

     Dynamical RAM for                spsi:      31.07 MB

     Dynamical RAM for      wfcinit/wfcrot:      31.31 MB

     Dynamical RAM for           addusdens:      14.20 MB

     Estimated static dynamical RAM per process >     136.16 MB

     Estimated max dynamical RAM per process >     231.61 MB

     Estimated total dynamical RAM >      14.48 GB

     Check: negative core charge=   -0.000003

     The potential is recalculated from file :
     ./out/smo.save/charge-density


     negative rho (up, down):  2.608E-01 0.000E+00
     Starting wfcs are  140 randomized atomic wfcs
     Checking if some PAW data can be deallocated... 
       PAW data deallocated on   28 nodes for type:  2

     Band Structure Calculation
     Davidson diagonalization with overlap

     Computing kpt #:     1  of     2 on this pool
     c_bands:  2 eigenvalues not converged
     total cpu time spent up to now is       85.5 secs

     Computing kpt #:     2  of     2 on this pool
     c_bands:  1 eigenvalues not converged
     total cpu time spent up to now is      159.3 secs

     ethr =  5.95E-12,  avg # of iterations = 87.1

     total cpu time spent up to now is      161.9 secs

     End of band structure calculation

          k = 0.0000 0.0000 0.0000 ( 10061 PWs)   bands (ev):

   -48.6980 -48.6966 -48.6944 -48.6891 -23.0323 -23.0126 -23.0047 -23.0015
   -22.9998 -22.9963 -22.9353 -22.9267 -22.9235 -22.9208 -22.9190 -22.9160
   -21.9775 -21.9447 -21.9428 -21.9274  -6.8962  -6.6901  -6.2570  -6.0342
    -6.0171  -5.9834  -5.6835  -5.6770  -5.2939  -5.2645  -5.2547  -5.2483
    -4.2327  -4.2323  -4.2321  -3.9907  -3.9889  -3.9858  -3.9551  -3.9527
    -3.8982  -3.6406  -3.6394  -3.5199   5.3972   5.4069   5.4239   5.4948
     5.6204   5.6739   5.8572   6.4557   6.4677   6.4835   7.4250   7.4338
     7.8387   7.8422   8.0025   8.0139   8.0328   8.0437   8.0439   8.1086
     8.6303   8.9644   8.9679   9.0117   9.3589   9.3704   9.3730   9.7360
     9.7569  10.0258  10.0278  10.0372  10.4519  10.5233  10.5267  10.5303
    11.8874  11.8953  11.8955  12.0994  14.6257  14.6275  14.6337  14.6408
    15.4070  15.6835  15.6956  15.6972  15.7086  15.7104  15.7154  15.9494
    15.9597  16.1853  16.8667  17.3196  17.3229

     occupation numbers 
     1.0000   1.0000   1.0000   1.0000   1.0000   1.0000   1.0000   1.0000
     1.0000   1.0000   1.0000   1.0000   1.0000   1.0000   1.0000   1.0000
     1.0000   1.0000   1.0000   1.0000   1.0000   1.0000   1.0000   1.0000
     1.0000   1.0000   1.0000   1.0000   1.0000   1.0000   1.0000   1.0000
     1.0000   1.0000   1.0000   1.0000   1.0000   1.0000   1.0000   1.0000
     1.0000   1.0000   1.0000   1.0000   1.0000   1.0000   1.0000   1.0000
     1.0000   1.0000   1.0000   1.0000   1.0000   1.0000   1.0000   1.0000
     1.0000   1.0000   1.0000   1.0000   1.0000   1.0000   1.0000   1.0000
     1.0000   1.0000   1.0000   1.0000   1.0000   1.0000   1.0000   1.0000
     1.0000   1.0000   1.0000   1.0000   1.0000   1.0000   1.0000   1.0000
     1.0000   1.0000   1.0000   1.0000   0.0000   0.0000   0.0000   0.0000
     0.0000   0.0000   0.0000   0.0000   0.0000   0.0000   0.0000   0.0000
     0.0000   0.0000   0.0000   0.0000   0.0000

          k = 0.0000 0.0000 0.1414 ( 10056 PWs)   bands (ev):

   -48.6979 -48.6967 -48.6944 -48.6892 -23.0233 -23.0046 -23.0044 -23.0012
   -23.0001 -22.9966 -22.9447 -22.9351 -22.9232 -22.9206 -22.9192 -22.9162
   -21.9742 -21.9477 -21.9414 -21.9289  -6.8661  -6.6841  -6.1726  -6.0139
    -6.0061  -5.9866  -5.6534  -5.6469  -5.3925  -5.3718  -5.3141  -5.3078
    -4.2020  -4.1579  -4.1573  -3.9873  -3.9854  -3.9585  -3.9562  -3.9344
    -3.9318  -3.6866  -3.6854  -3.5589   5.4085   5.4223   5.5368   5.6251
     5.7508   5.7509   5.9904   6.4057   6.5154   6.5272   7.2640   7.2732
     7.8413   7.8465   7.8527   8.0116   8.0225   8.1067   8.1152   8.2060
     8.5929   8.6921   9.1750   9.1816   9.1831   9.1844   9.2907   9.6641
     9.7502   9.7709   9.9527   9.9675  10.4068  10.4095  10.4592  10.5227
    11.9139  12.0788  12.2304  12.2376  14.3868  14.3895  14.7048  14.7122
    15.4367  15.5468  15.5533  15.6809  15.6849  15.6960  16.0821  16.1175
    16.1313  16.4582  17.2469  17.3816  17.5691

     occupation numbers 
     1.0000   1.0000   1.0000   1.0000   1.0000   1.0000   1.0000   1.0000
     1.0000   1.0000   1.0000   1.0000   1.0000   1.0000   1.0000   1.0000
     1.0000   1.0000   1.0000   1.0000   1.0000   1.0000   1.0000   1.0000
     1.0000   1.0000   1.0000   1.0000   1.0000   1.0000   1.0000   1.0000
     1.0000   1.0000   1.0000   1.0000   1.0000   1.0000   1.0000   1.0000
     1.0000   1.0000   1.0000   1.0000   1.0000   1.0000   1.0000   1.0000
     1.0000   1.0000   1.0000   1.0000   1.0000   1.0000   1.0000   1.0000
     1.0000   1.0000   1.0000   1.0000   1.0000   1.0000   1.0000   1.0000
     1.0000   1.0000   1.0000   1.0000   1.0000   1.0000   1.0000   1.0000
     1.0000   1.0000   1.0000   1.0000   1.0000   1.0000   1.0000   1.0000
     1.0000   1.0000   1.0000   1.0000   0.0000   0.0000   0.0000   0.0000
     0.0000   0.0000   0.0000   0.0000   0.0000   0.0000   0.0000   0.0000
     0.0000   0.0000   0.0000   0.0000   0.0000

          k = 0.0000 0.0000 0.2829 ( 10040 PWs)   bands (ev):

   -48.6976 -48.6969 -48.6944 -48.6892 -23.0036 -23.0008 -23.0005 -22.9994
   -22.9973 -22.9835 -22.9692 -22.9567 -22.9227 -22.9201 -22.9198 -22.9167
   -21.9658 -21.9557 -21.9375 -21.9328  -6.7899  -6.7111  -6.0055  -5.9951
    -5.9428  -5.8728  -5.6384  -5.6294  -5.5674  -5.5610  -5.4418  -5.4355
    -4.1211  -4.0179  -3.9897  -3.9890  -3.9784  -3.9764  -3.9674  -3.9652
    -3.8137  -3.8128  -3.8083  -3.6657   5.4127   5.4181   5.6305   5.6347
     5.9527   6.2027   6.4238   6.6377   6.6898   6.7010   6.9596   6.9699
     7.2417   7.6389   7.8905   7.8994   7.9563   7.9666   8.3791   8.3851
     8.4990   8.7709   8.7764   8.8615   9.0027   9.0888   9.6330   9.6339
     9.7919   9.8120   9.8592   9.8777  10.0847  10.0858  10.4786  10.5028
    11.9630  12.0260  12.9700  12.9762  13.7665  13.7710  14.9107  14.9186
    15.2191  15.2269  15.5138  15.6072  15.6882  15.6930  16.5091  16.5789
    16.7686  17.0607  17.1369  17.3807  17.5024

     occupation numbers 
     1.0000   1.0000   1.0000   1.0000   1.0000   1.0000   1.0000   1.0000
     1.0000   1.0000   1.0000   1.0000   1.0000   1.0000   1.0000   1.0000
     1.0000   1.0000   1.0000   1.0000   1.0000   1.0000   1.0000   1.0000
     1.0000   1.0000   1.0000   1.0000   1.0000   1.0000   1.0000   1.0000
     1.0000   1.0000   1.0000   1.0000   1.0000   1.0000   1.0000   1.0000
     1.0000   1.0000   1.0000   1.0000   1.0000   1.0000   1.0000   1.0000
     1.0000   1.0000   1.0000   1.0000   1.0000   1.0000   1.0000   1.0000
     1.0000   1.0000   1.0000   1.0000   1.0000   1.0000   1.0000   1.0000
     1.0000   1.0000   1.0000   1.0000   1.0000   1.0000   1.0000   1.0000
     1.0000   1.0000   1.0000   1.0000   1.0000   1.0000   1.0000   1.0000
     1.0000   1.0000   1.0000   1.0000   0.9931   0.9914   0.0000   0.0000
     0.0000   0.0000   0.0000   0.0000   0.0000   0.0000   0.0000   0.0000
     0.0000   0.0000   0.0000   0.0000   0.0000

          k = 0.0000 0.0000 0.4243 ( 10040 PWs)   bands (ev):

   -48.6976 -48.6969 -48.6944 -48.6892 -23.0036 -23.0008 -23.0005 -22.9994
   -22.9973 -22.9835 -22.9692 -22.9567 -22.9227 -22.9201 -22.9198 -22.9167
   -21.9658 -21.9557 -21.9375 -21.9328  -6.7899  -6.7111  -6.0055  -5.9951
    -5.9428  -5.8728  -5.6384  -5.6294  -5.5674  -5.5610  -5.4418  -5.4355
    -4.1211  -4.0179  -3.9897  -3.9890  -3.9784  -3.9764  -3.9674  -3.9652
    -3.8137  -3.8128  -3.8083  -3.6657   5.4127   5.4181   5.6305   5.6347
     5.9527   6.2027   6.4238   6.6377   6.6898   6.7010   6.9596   6.9699
     7.2417   7.6389   7.8905   7.8994   7.9563   7.9666   8.3791   8.3851
     8.4990   8.7709   8.7764   8.8615   9.0027   9.0888   9.6330   9.6339
     9.7919   9.8120   9.8592   9.8777  10.0847  10.0858  10.4786  10.5028
    11.9630  12.0260  12.9700  12.9762  13.7665  13.7710  14.9107  14.9186
    15.2191  15.2269  15.5138  15.6072  15.6882  15.6930  16.5091  16.5789
    16.7686  17.0607  17.1369  17.3807  17.5024

     occupation numbers 
     1.0000   1.0000   1.0000   1.0000   1.0000   1.0000   1.0000   1.0000
     1.0000   1.0000   1.0000   1.0000   1.0000   1.0000   1.0000   1.0000
     1.0000   1.0000   1.0000   1.0000   1.0000   1.0000   1.0000   1.0000
     1.0000   1.0000   1.0000   1.0000   1.0000   1.0000   1.0000   1.0000
     1.0000   1.0000   1.0000   1.0000   1.0000   1.0000   1.0000   1.0000
     1.0000   1.0000   1.0000   1.0000   1.0000   1.0000   1.0000   1.0000
     1.0000   1.0000   1.0000   1.0000   1.0000   1.0000   1.0000   1.0000
     1.0000   1.0000   1.0000   1.0000   1.0000   1.0000   1.0000   1.0000
     1.0000   1.0000   1.0000   1.0000   1.0000   1.0000   1.0000   1.0000
     1.0000   1.0000   1.0000   1.0000   1.0000   1.0000   1.0000   1.0000
     1.0000   1.0000   1.0000   1.0000   0.9931   0.9914   0.0000   0.0000
     0.0000   0.0000   0.0000   0.0000   0.0000   0.0000   0.0000   0.0000
     0.0000   0.0000   0.0000   0.0000   0.0000

          k = 0.0000 0.0000 0.5658 ( 10056 PWs)   bands (ev):

   -48.6979 -48.6967 -48.6944 -48.6892 -23.0233 -23.0046 -23.0044 -23.0012
   -23.0001 -22.9966 -22.9447 -22.9351 -22.9232 -22.9206 -22.9192 -22.9162
   -21.9742 -21.9477 -21.9414 -21.9289  -6.8661  -6.6841  -6.1726  -6.0139
    -6.0061  -5.9866  -5.6534  -5.6469  -5.3925  -5.3718  -5.3141  -5.3078
    -4.2020  -4.1579  -4.1573  -3.9873  -3.9854  -3.9585  -3.9562  -3.9344
    -3.9318  -3.6866  -3.6854  -3.5589   5.4085   5.4223   5.5368   5.6251
     5.7508   5.7509   5.9904   6.4057   6.5154   6.5272   7.2640   7.2732
     7.8413   7.8465   7.8527   8.0116   8.0225   8.1067   8.1152   8.2060
     8.5929   8.6921   9.1750   9.1816   9.1831   9.1844   9.2907   9.6641
     9.7502   9.7709   9.9527   9.9675  10.4068  10.4095  10.4592  10.5227
    11.9139  12.0788  12.2304  12.2376  14.3868  14.3895  14.7048  14.7122
    15.4367  15.5468  15.5533  15.6809  15.6849  15.6960  16.0821  16.1175
    16.1313  16.4582  17.2469  17.3816  17.5640

     occupation numbers 
     1.0000   1.0000   1.0000   1.0000   1.0000   1.0000   1.0000   1.0000
     1.0000   1.0000   1.0000   1.0000   1.0000   1.0000   1.0000   1.0000
     1.0000   1.0000   1.0000   1.0000   1.0000   1.0000   1.0000   1.0000
     1.0000   1.0000   1.0000   1.0000   1.0000   1.0000   1.0000   1.0000
     1.0000   1.0000   1.0000   1.0000   1.0000   1.0000   1.0000   1.0000
     1.0000   1.0000   1.0000   1.0000   1.0000   1.0000   1.0000   1.0000
     1.0000   1.0000   1.0000   1.0000   1.0000   1.0000   1.0000   1.0000
     1.0000   1.0000   1.0000   1.0000   1.0000   1.0000   1.0000   1.0000
     1.0000   1.0000   1.0000   1.0000   1.0000   1.0000   1.0000   1.0000
     1.0000   1.0000   1.0000   1.0000   1.0000   1.0000   1.0000   1.0000
     1.0000   1.0000   1.0000   1.0000   0.0000   0.0000   0.0000   0.0000
     0.0000   0.0000   0.0000   0.0000   0.0000   0.0000   0.0000   0.0000
     0.0000   0.0000   0.0000   0.0000   0.0000

          k = 0.0000 0.1994 0.0000 ( 10070 PWs)   bands (ev):

   -48.6978 -48.6965 -48.6946 -48.6892 -23.0297 -23.0135 -22.9990 -22.9939
   -22.9925 -22.9887 -22.9348 -22.9334 -22.9286 -22.9272 -22.9271 -22.9237
   -21.9713 -21.9442 -21.9435 -21.9302  -6.7749  -6.6761  -6.3702  -6.0073
    -5.9817  -5.9203  -5.7057  -5.6588  -5.4872  -5.3700  -5.3610  -5.3269
    -4.2067  -4.1023  -4.0751  -3.9821  -3.9789  -3.9680  -3.9088  -3.9081
    -3.8621  -3.6874  -3.6505  -3.5629   5.4457   5.4900   5.6683   5.6852
     5.8321   5.9489   6.0771   6.3770   6.5221   6.6094   7.1120   7.4700
     7.5009   7.5538   7.7447   7.7483   7.8888   7.9220   8.0010   8.8148
     8.8454   8.8630   8.9811   9.0451   9.0645   9.0872   9.1888   9.3745
     9.4783   9.5623   9.7304   9.8519  10.3078  10.3117  10.3597  10.4508
    12.1991  12.2921  12.4739  12.6457  14.3833  14.4365  14.6475  14.6605
    15.1187  15.3875  15.5053  15.5504  15.9054  16.2723  16.2758  16.3359
    16.3415  16.6355  16.8305  17.5756  17.6585

     occupation numbers 
     1.0000   1.0000   1.0000   1.0000   1.0000   1.0000   1.0000   1.0000
     1.0000   1.0000   1.0000   1.0000   1.0000   1.0000   1.0000   1.0000
     1.0000   1.0000   1.0000   1.0000   1.0000   1.0000   1.0000   1.0000
     1.0000   1.0000   1.0000   1.0000   1.0000   1.0000   1.0000   1.0000
     1.0000   1.0000   1.0000   1.0000   1.0000   1.0000   1.0000   1.0000
     1.0000   1.0000   1.0000   1.0000   1.0000   1.0000   1.0000   1.0000
     1.0000   1.0000   1.0000   1.0000   1.0000   1.0000   1.0000   1.0000
     1.0000   1.0000   1.0000   1.0000   1.0000   1.0000   1.0000   1.0000
     1.0000   1.0000   1.0000   1.0000   1.0000   1.0000   1.0000   1.0000
     1.0000   1.0000   1.0000   1.0000   1.0000   1.0000   1.0000   1.0000
     1.0000   1.0000   1.0000   1.0000   0.0000   0.0000   0.0000   0.0000
     0.0000   0.0000   0.0000   0.0000   0.0000   0.0000   0.0000   0.0000
     0.0000   0.0000   0.0000   0.0000   0.0000

          k = 0.0000 0.1994 0.1414 ( 10059 PWs)   bands (ev):

   -48.6977 -48.6966 -48.6946 -48.6892 -23.0208 -23.0054 -22.9985 -22.9936
   -22.9930 -22.9891 -22.9441 -22.9357 -22.9327 -22.9283 -22.9275 -22.9239
   -21.9686 -21.9467 -21.9422 -21.9315  -6.7495  -6.6537  -6.2914  -5.9920
    -5.9759  -5.9263  -5.6779  -5.6336  -5.5797  -5.4607  -5.3884  -5.3765
    -4.1450  -4.1438  -3.9806  -3.9799  -3.9692  -3.9669  -3.9502  -3.8750
    -3.8727  -3.7287  -3.6702  -3.5923   5.6586   5.6698   5.6835   5.7453
     5.8540   5.9912   6.1095   6.4255   6.5845   6.5914   7.1889   7.3144
     7.3771   7.5345   7.6459   7.8046   7.8670   7.8707   7.9508   8.6061
     8.7548   8.7631   8.8389   9.1166   9.1453   9.2009   9.2241   9.3643
     9.4700   9.4956   9.6861   9.6985  10.2609  10.2618  10.3123  10.4025
    12.4117  12.5208  12.5285  12.6272  14.4174  14.4229  14.4572  14.5061
    15.1454  15.3306  15.3794  15.3824  16.3384  16.3422  16.3562  16.4223
    16.4334  16.8022  17.2545  17.7801  17.7805

     occupation numbers 
     1.0000   1.0000   1.0000   1.0000   1.0000   1.0000   1.0000   1.0000
     1.0000   1.0000   1.0000   1.0000   1.0000   1.0000   1.0000   1.0000
     1.0000   1.0000   1.0000   1.0000   1.0000   1.0000   1.0000   1.0000
     1.0000   1.0000   1.0000   1.0000   1.0000   1.0000   1.0000   1.0000
     1.0000   1.0000   1.0000   1.0000   1.0000   1.0000   1.0000   1.0000
     1.0000   1.0000   1.0000   1.0000   1.0000   1.0000   1.0000   1.0000
     1.0000   1.0000   1.0000   1.0000   1.0000   1.0000   1.0000   1.0000
     1.0000   1.0000   1.0000   1.0000   1.0000   1.0000   1.0000   1.0000
     1.0000   1.0000   1.0000   1.0000   1.0000   1.0000   1.0000   1.0000
     1.0000   1.0000   1.0000   1.0000   1.0000   1.0000   1.0000   1.0000
     1.0000   1.0000   1.0000   1.0000   0.0000   0.0000   0.0000   0.0000
     0.0000   0.0000   0.0000   0.0000   0.0000   0.0000   0.0000   0.0000
     0.0000   0.0000   0.0000   0.0000   0.0000

          k = 0.0000 0.1994 0.2829 ( 10077 PWs)   bands (ev):

   -48.6974 -48.6968 -48.6946 -48.6893 -22.9975 -22.9973 -22.9942 -22.9929
   -22.9897 -22.9842 -22.9680 -22.9573 -22.9318 -22.9285 -22.9279 -22.9244
   -21.9616 -21.9533 -21.9389 -21.9348  -6.6888  -6.6413  -6.0798  -5.9608
    -5.9418  -5.8920  -5.8082  -5.6783  -5.5996  -5.5639  -5.4871  -5.4692
    -4.1250  -4.0432  -3.9983  -3.9768  -3.9725  -3.9396  -3.9055  -3.8511
    -3.8425  -3.7797  -3.7380  -3.6726   5.6738   5.6793   5.8754   5.8806
     6.1285   6.2845   6.4106   6.5849   6.7674   6.8089   6.9677   7.0518
     7.1825   7.3927   7.6365   7.6762   7.6870   7.8110   7.9903   8.0682
     8.3540   8.3625   8.9115   9.0560   9.2926   9.3253   9.4441   9.4795
     9.5446   9.5557   9.6184   9.6324   9.9765  10.0290  10.3263  10.3518
    12.5190  12.5794  13.0936  13.1077  13.8256  13.8262  14.6784  14.7122
    15.0091  15.0320  15.2147  15.3002  16.3411  16.3435  16.8358  16.8441
    17.0906  17.3593  17.3765  17.5142  17.7425

     occupation numbers 
     1.0000   1.0000   1.0000   1.0000   1.0000   1.0000   1.0000   1.0000
     1.0000   1.0000   1.0000   1.0000   1.0000   1.0000   1.0000   1.0000
     1.0000   1.0000   1.0000   1.0000   1.0000   1.0000   1.0000   1.0000
     1.0000   1.0000   1.0000   1.0000   1.0000   1.0000   1.0000   1.0000
     1.0000   1.0000   1.0000   1.0000   1.0000   1.0000   1.0000   1.0000
     1.0000   1.0000   1.0000   1.0000   1.0000   1.0000   1.0000   1.0000
     1.0000   1.0000   1.0000   1.0000   1.0000   1.0000   1.0000   1.0000
     1.0000   1.0000   1.0000   1.0000   1.0000   1.0000   1.0000   1.0000
     1.0000   1.0000   1.0000   1.0000   1.0000   1.0000   1.0000   1.0000
     1.0000   1.0000   1.0000   1.0000   1.0000   1.0000   1.0000   1.0000
     1.0000   1.0000   1.0000   1.0000   0.8883   0.8857   0.0000   0.0000
     0.0000   0.0000   0.0000   0.0000   0.0000   0.0000   0.0000   0.0000
     0.0000   0.0000   0.0000   0.0000   0.0000

          k = 0.0000 0.1994 0.4243 ( 10077 PWs)   bands (ev):

   -48.6974 -48.6968 -48.6946 -48.6893 -22.9975 -22.9973 -22.9942 -22.9929
   -22.9897 -22.9842 -22.9680 -22.9573 -22.9318 -22.9285 -22.9279 -22.9244
   -21.9616 -21.9533 -21.9389 -21.9348  -6.6888  -6.6413  -6.0798  -5.9608
    -5.9418  -5.8920  -5.8082  -5.6783  -5.5996  -5.5639  -5.4871  -5.4692
    -4.1250  -4.0432  -3.9983  -3.9768  -3.9725  -3.9396  -3.9055  -3.8511
    -3.8425  -3.7797  -3.7380  -3.6726   5.6738   5.6793   5.8754   5.8806
     6.1285   6.2845   6.4106   6.5849   6.7674   6.8089   6.9677   7.0518
     7.1825   7.3927   7.6365   7.6762   7.6870   7.8110   7.9903   8.0682
     8.3540   8.3625   8.9115   9.0560   9.2926   9.3253   9.4441   9.4795
     9.5446   9.5557   9.6184   9.6324   9.9765  10.0290  10.3263  10.3518
    12.5190  12.5794  13.0936  13.1077  13.8256  13.8262  14.6784  14.7122
    15.0091  15.0320  15.2147  15.3002  16.3411  16.3435  16.8358  16.8441
    17.0906  17.3593  17.3765  17.5142  17.7425

     occupation numbers 
     1.0000   1.0000   1.0000   1.0000   1.0000   1.0000   1.0000   1.0000
     1.0000   1.0000   1.0000   1.0000   1.0000   1.0000   1.0000   1.0000
     1.0000   1.0000   1.0000   1.0000   1.0000   1.0000   1.0000   1.0000
     1.0000   1.0000   1.0000   1.0000   1.0000   1.0000   1.0000   1.0000
     1.0000   1.0000   1.0000   1.0000   1.0000   1.0000   1.0000   1.0000
     1.0000   1.0000   1.0000   1.0000   1.0000   1.0000   1.0000   1.0000
     1.0000   1.0000   1.0000   1.0000   1.0000   1.0000   1.0000   1.0000
     1.0000   1.0000   1.0000   1.0000   1.0000   1.0000   1.0000   1.0000
     1.0000   1.0000   1.0000   1.0000   1.0000   1.0000   1.0000   1.0000
     1.0000   1.0000   1.0000   1.0000   1.0000   1.0000   1.0000   1.0000
     1.0000   1.0000   1.0000   1.0000   0.8883   0.8857   0.0000   0.0000
     0.0000   0.0000   0.0000   0.0000   0.0000   0.0000   0.0000   0.0000
     0.0000   0.0000   0.0000   0.0000   0.0000

          k = 0.0000 0.1994 0.5658 ( 10059 PWs)   bands (ev):

   -48.6977 -48.6966 -48.6946 -48.6892 -23.0208 -23.0054 -22.9985 -22.9936
   -22.9930 -22.9891 -22.9441 -22.9357 -22.9327 -22.9283 -22.9275 -22.9239
   -21.9686 -21.9467 -21.9422 -21.9315  -6.7495  -6.6537  -6.2914  -5.9920
    -5.9759  -5.9263  -5.6779  -5.6336  -5.5797  -5.4607  -5.3884  -5.3765
    -4.1450  -4.1438  -3.9806  -3.9799  -3.9692  -3.9669  -3.9502  -3.8750
    -3.8727  -3.7287  -3.6702  -3.5923   5.6586   5.6698   5.6835   5.7453
     5.8540   5.9912   6.1095   6.4255   6.5845   6.5914   7.1889   7.3144
     7.3771   7.5345   7.6459   7.8046   7.8670   7.8707   7.9508   8.6061
     8.7548   8.7631   8.8389   9.1166   9.1453   9.2009   9.2241   9.3643
     9.4700   9.4956   9.6861   9.6985  10.2609  10.2618  10.3123  10.4025
    12.4117  12.5208  12.5285  12.6272  14.4174  14.4229  14.4572  14.5061
    15.1454  15.3306  15.3794  15.3824  16.3384  16.3422  16.3562  16.4223
    16.4334  16.8022  17.2545  17.7801  17.7805

     occupation numbers 
     1.0000   1.0000   1.0000   1.0000   1.0000   1.0000   1.0000   1.0000
     1.0000   1.0000   1.0000   1.0000   1.0000   1.0000   1.0000   1.0000
     1.0000   1.0000   1.0000   1.0000   1.0000   1.0000   1.0000   1.0000
     1.0000   1.0000   1.0000   1.0000   1.0000   1.0000   1.0000   1.0000
     1.0000   1.0000   1.0000   1.0000   1.0000   1.0000   1.0000   1.0000
     1.0000   1.0000   1.0000   1.0000   1.0000   1.0000   1.0000   1.0000
     1.0000   1.0000   1.0000   1.0000   1.0000   1.0000   1.0000   1.0000
     1.0000   1.0000   1.0000   1.0000   1.0000   1.0000   1.0000   1.0000
     1.0000   1.0000   1.0000   1.0000   1.0000   1.0000   1.0000   1.0000
     1.0000   1.0000   1.0000   1.0000   1.0000   1.0000   1.0000   1.0000
     1.0000   1.0000   1.0000   1.0000   0.0000   0.0000   0.0000   0.0000
     0.0000   0.0000   0.0000   0.0000   0.0000   0.0000   0.0000   0.0000
     0.0000   0.0000   0.0000   0.0000   0.0000

          k = 0.0000 0.3989 0.0000 ( 10076 PWs)   bands (ev):

   -48.6975 -48.6962 -48.6951 -48.6893 -23.0240 -23.0162 -22.9824 -22.9739
   -22.9731 -22.9690 -22.9571 -22.9488 -22.9476 -22.9437 -22.9338 -22.9281
   -21.9582 -21.9478 -21.9416 -21.9363  -6.6383  -6.5410  -6.4372  -5.9620
    -5.8912  -5.8896  -5.7852  -5.7490  -5.7255  -5.5231  -5.4803  -5.4777
    -4.1380  -4.0522  -3.9595  -3.9325  -3.8998  -3.8790  -3.8318  -3.7942
    -3.7623  -3.7545  -3.6876  -3.6775   5.4748   5.4819   6.2963   6.3503
     6.3722   6.3965   6.5051   6.6446   6.6957   6.7577   7.0115   7.0709
     7.1155   7.2102   7.2663   7.3188   7.6835   7.8368   7.8743   7.9027
     8.1207   8.4389   8.7131   8.9325   9.0388   9.1985   9.2322   9.4045
     9.4720   9.5177   9.6526   9.7312   9.8221   9.9705   9.9753  10.2032
    12.9016  13.0998  13.4439  13.6687  13.7189  13.8856  14.3802  14.6469
    14.7959  14.8289  15.1184  15.1763  16.3069  16.6527  17.0572  17.1440
    17.6385  17.7359  17.8032  17.9014  18.1560

     occupation numbers 
     1.0000   1.0000   1.0000   1.0000   1.0000   1.0000   1.0000   1.0000
     1.0000   1.0000   1.0000   1.0000   1.0000   1.0000   1.0000   1.0000
     1.0000   1.0000   1.0000   1.0000   1.0000   1.0000   1.0000   1.0000
     1.0000   1.0000   1.0000   1.0000   1.0000   1.0000   1.0000   1.0000
     1.0000   1.0000   1.0000   1.0000   1.0000   1.0000   1.0000   1.0000
     1.0000   1.0000   1.0000   1.0000   1.0000   1.0000   1.0000   1.0000
     1.0000   1.0000   1.0000   1.0000   1.0000   1.0000   1.0000   1.0000
     1.0000   1.0000   1.0000   1.0000   1.0000   1.0000   1.0000   1.0000
     1.0000   1.0000   1.0000   1.0000   1.0000   1.0000   1.0000   1.0000
     1.0000   1.0000   1.0000   1.0000   1.0000   1.0000   1.0000   1.0000
     1.0000   1.0000   1.0000   0.9999   0.9993   0.2967   0.0000   0.0000
     0.0000   0.0000   0.0000   0.0000   0.0000   0.0000   0.0000   0.0000
     0.0000   0.0000   0.0000   0.0000   0.0000

          k = 0.0000 0.3989 0.1414 ( 10075 PWs)   bands (ev):

   -48.6974 -48.6963 -48.6950 -48.6894 -23.0155 -23.0080 -22.9815 -22.9739
   -22.9736 -22.9693 -22.9565 -22.9485 -22.9484 -22.9439 -22.9423 -22.9366
   -21.9566 -21.9467 -21.9432 -21.9374  -6.5858  -6.4710  -6.4274  -5.9867
    -5.8909  -5.8786  -5.7642  -5.7637  -5.7189  -5.5543  -5.5534  -5.5359
    -4.0999  -4.0364  -3.9649  -3.9644  -3.9492  -3.9132  -3.8231  -3.8113
    -3.7624  -3.7330  -3.6627  -3.6615   5.7304   5.7365   6.3043   6.3473
     6.3736   6.3922   6.5741   6.7282   6.7680   6.7773   7.0170   7.0751
     7.0873   7.2601   7.2634   7.3327   7.4611   7.6805   7.6810   7.8360
     8.1022   8.1661   8.5931   8.7541   9.1694   9.2601   9.3853   9.4148
     9.4278   9.4885   9.6559   9.7561   9.8110   9.9261   9.9717  10.1794
    13.0458  13.2104  13.4692  13.6468  13.8134  13.9583  14.4061  14.5917
    14.6070  14.6204  14.9479  14.9828  16.7775  17.1165  17.1786  17.2498
    17.6393  17.7470  17.8023  17.9877  18.1673

     occupation numbers 
     1.0000   1.0000   1.0000   1.0000   1.0000   1.0000   1.0000   1.0000
     1.0000   1.0000   1.0000   1.0000   1.0000   1.0000   1.0000   1.0000
     1.0000   1.0000   1.0000   1.0000   1.0000   1.0000   1.0000   1.0000
     1.0000   1.0000   1.0000   1.0000   1.0000   1.0000   1.0000   1.0000
     1.0000   1.0000   1.0000   1.0000   1.0000   1.0000   1.0000   1.0000
     1.0000   1.0000   1.0000   1.0000   1.0000   1.0000   1.0000   1.0000
     1.0000   1.0000   1.0000   1.0000   1.0000   1.0000   1.0000   1.0000
     1.0000   1.0000   1.0000   1.0000   1.0000   1.0000   1.0000   1.0000
     1.0000   1.0000   1.0000   1.0000   1.0000   1.0000   1.0000   1.0000
     1.0000   1.0000   1.0000   1.0000   1.0000   1.0000   1.0000   1.0000
     1.0000   1.0000   1.0000   1.0000   0.9353   0.0118   0.0000   0.0000
     0.0000   0.0000   0.0000   0.0000   0.0000   0.0000   0.0000   0.0000
     0.0000   0.0000   0.0000   0.0000   0.0000

          k = 0.0000 0.3989 0.2829 ( 10090 PWs)   bands (ev):

   -48.6971 -48.6966 -48.6950 -48.6894 -22.9933 -22.9867 -22.9796 -22.9757
   -22.9729 -22.9699 -22.9658 -22.9590 -22.9536 -22.9501 -22.9481 -22.9444
   -21.9524 -21.9472 -21.9438 -21.9402  -6.4773  -6.4209  -6.2910  -6.0939
    -5.8586  -5.8449  -5.8011  -5.7263  -5.7059  -5.6960  -5.6381  -5.6261
    -4.0106  -4.0089  -4.0067  -3.9963  -3.9500  -3.9494  -3.9017  -3.8940
    -3.6921  -3.6823  -3.6569  -3.6535   6.3123   6.3368   6.3647   6.3708
     6.3779   6.3846   6.7811   6.7862   6.8435   6.9764   6.9801   7.0788
     7.0839   7.2024   7.2410   7.2513   7.3002   7.4319   7.4333   7.7427
     7.7443   7.7769   8.0729   8.1979   9.4478   9.4747   9.4754   9.4831
     9.5079   9.5976   9.7400   9.7632   9.7660   9.7881   9.9983  10.0946
    13.4430  13.5575  13.5656  13.5866  14.0834  14.0904  14.1059  14.1885
    14.4741  14.5186  14.5694  14.5759  17.5219  17.5283  17.7253  17.7544
    17.8021  17.8210  17.9384  17.9401  17.9912

     occupation numbers 
     1.0000   1.0000   1.0000   1.0000   1.0000   1.0000   1.0000   1.0000
     1.0000   1.0000   1.0000   1.0000   1.0000   1.0000   1.0000   1.0000
     1.0000   1.0000   1.0000   1.0000   1.0000   1.0000   1.0000   1.0000
     1.0000   1.0000   1.0000   1.0000   1.0000   1.0000   1.0000   1.0000
     1.0000   1.0000   1.0000   1.0000   1.0000   1.0000   1.0000   1.0000
     1.0000   1.0000   1.0000   1.0000   1.0000   1.0000   1.0000   1.0000
     1.0000   1.0000   1.0000   1.0000   1.0000   1.0000   1.0000   1.0000
     1.0000   1.0000   1.0000   1.0000   1.0000   1.0000   1.0000   1.0000
     1.0000   1.0000   1.0000   1.0000   1.0000   1.0000   1.0000   1.0000
     1.0000   1.0000   1.0000   1.0000   1.0000   1.0000   1.0000   1.0000
     1.0000   1.0000   1.0000   1.0000   0.0000   0.0000   0.0000   0.0000
     0.0000   0.0000   0.0000   0.0000   0.0000   0.0000   0.0000   0.0000
     0.0000   0.0000   0.0000   0.0000   0.0000

          k = 0.0000 0.3989 0.4243 ( 10090 PWs)   bands (ev):

   -48.6971 -48.6966 -48.6950 -48.6894 -22.9933 -22.9867 -22.9796 -22.9757
   -22.9729 -22.9699 -22.9658 -22.9590 -22.9536 -22.9501 -22.9481 -22.9444
   -21.9524 -21.9472 -21.9438 -21.9402  -6.4773  -6.4209  -6.2910  -6.0939
    -5.8586  -5.8449  -5.8011  -5.7263  -5.7059  -5.6960  -5.6381  -5.6261
    -4.0106  -4.0089  -4.0067  -3.9963  -3.9500  -3.9494  -3.9017  -3.8940
    -3.6921  -3.6823  -3.6569  -3.6535   6.3123   6.3368   6.3647   6.3708
     6.3779   6.3846   6.7811   6.7862   6.8435   6.9764   6.9801   7.0788
     7.0839   7.2024   7.2410   7.2513   7.3002   7.4319   7.4333   7.7426
     7.7443   7.7769   8.0729   8.1979   9.4478   9.4747   9.4754   9.4831
     9.5079   9.5976   9.7400   9.7632   9.7660   9.7881   9.9983  10.0946
    13.4430  13.5575  13.5656  13.5866  14.0834  14.0904  14.1059  14.1885
    14.4741  14.5186  14.5694  14.5759  17.5219  17.5283  17.7253  17.7544
    17.8021  17.8210  17.9384  17.9401  17.9912

     occupation numbers 
     1.0000   1.0000   1.0000   1.0000   1.0000   1.0000   1.0000   1.0000
     1.0000   1.0000   1.0000   1.0000   1.0000   1.0000   1.0000   1.0000
     1.0000   1.0000   1.0000   1.0000   1.0000   1.0000   1.0000   1.0000
     1.0000   1.0000   1.0000   1.0000   1.0000   1.0000   1.0000   1.0000
     1.0000   1.0000   1.0000   1.0000   1.0000   1.0000   1.0000   1.0000
     1.0000   1.0000   1.0000   1.0000   1.0000   1.0000   1.0000   1.0000
     1.0000   1.0000   1.0000   1.0000   1.0000   1.0000   1.0000   1.0000
     1.0000   1.0000   1.0000   1.0000   1.0000   1.0000   1.0000   1.0000
     1.0000   1.0000   1.0000   1.0000   1.0000   1.0000   1.0000   1.0000
     1.0000   1.0000   1.0000   1.0000   1.0000   1.0000   1.0000   1.0000
     1.0000   1.0000   1.0000   1.0000   0.0000   0.0000   0.0000   0.0000
     0.0000   0.0000   0.0000   0.0000   0.0000   0.0000   0.0000   0.0000
     0.0000   0.0000   0.0000   0.0000   0.0000

          k = 0.0000 0.3989 0.5658 ( 10075 PWs)   bands (ev):

   -48.6974 -48.6963 -48.6950 -48.6894 -23.0155 -23.0080 -22.9815 -22.9739
   -22.9736 -22.9693 -22.9565 -22.9485 -22.9484 -22.9439 -22.9423 -22.9366
   -21.9566 -21.9467 -21.9432 -21.9374  -6.5858  -6.4710  -6.4274  -5.9867
    -5.8909  -5.8786  -5.7642  -5.7637  -5.7189  -5.5543  -5.5534  -5.5359
    -4.0999  -4.0364  -3.9649  -3.9644  -3.9492  -3.9132  -3.8231  -3.8113
    -3.7624  -3.7330  -3.6627  -3.6615   5.7304   5.7365   6.3043   6.3473
     6.3736   6.3922   6.5741   6.7282   6.7680   6.7773   7.0170   7.0751
     7.0873   7.2601   7.2634   7.3327   7.4611   7.6805   7.6810   7.8360
     8.1022   8.1661   8.5931   8.7541   9.1694   9.2601   9.3853   9.4148
     9.4278   9.4885   9.6559   9.7561   9.8110   9.9261   9.9717  10.1794
    13.0458  13.2104  13.4692  13.6468  13.8134  13.9583  14.4061  14.5917
    14.6070  14.6204  14.9479  14.9828  16.7775  17.1165  17.1786  17.2498
    17.6393  17.7470  17.8023  17.9877  18.1673

     occupation numbers 
     1.0000   1.0000   1.0000   1.0000   1.0000   1.0000   1.0000   1.0000
     1.0000   1.0000   1.0000   1.0000   1.0000   1.0000   1.0000   1.0000
     1.0000   1.0000   1.0000   1.0000   1.0000   1.0000   1.0000   1.0000
     1.0000   1.0000   1.0000   1.0000   1.0000   1.0000   1.0000   1.0000
     1.0000   1.0000   1.0000   1.0000   1.0000   1.0000   1.0000   1.0000
     1.0000   1.0000   1.0000   1.0000   1.0000   1.0000   1.0000   1.0000
     1.0000   1.0000   1.0000   1.0000   1.0000   1.0000   1.0000   1.0000
     1.0000   1.0000   1.0000   1.0000   1.0000   1.0000   1.0000   1.0000
     1.0000   1.0000   1.0000   1.0000   1.0000   1.0000   1.0000   1.0000
     1.0000   1.0000   1.0000   1.0000   1.0000   1.0000   1.0000   1.0000
     1.0000   1.0000   1.0000   1.0000   0.9353   0.0118   0.0000   0.0000
     0.0000   0.0000   0.0000   0.0000   0.0000   0.0000   0.0000   0.0000
     0.0000   0.0000   0.0000   0.0000   0.0000

          k = 0.0000 0.5983 0.0000 ( 10076 PWs)   bands (ev):

   -48.6975 -48.6962 -48.6951 -48.6893 -23.0240 -23.0162 -22.9824 -22.9739
   -22.9731 -22.9690 -22.9571 -22.9488 -22.9476 -22.9437 -22.9338 -22.9281
   -21.9582 -21.9478 -21.9416 -21.9363  -6.6383  -6.5410  -6.4372  -5.9620
    -5.8912  -5.8896  -5.7852  -5.7490  -5.7255  -5.5231  -5.4803  -5.4777
    -4.1380  -4.0522  -3.9595  -3.9325  -3.8998  -3.8790  -3.8318  -3.7942
    -3.7623  -3.7545  -3.6876  -3.6775   5.4748   5.4819   6.2963   6.3503
     6.3722   6.3965   6.5051   6.6446   6.6957   6.7577   7.0115   7.0709
     7.1155   7.2102   7.2663   7.3188   7.6835   7.8368   7.8743   7.9027
     8.1207   8.4389   8.7131   8.9325   9.0388   9.1985   9.2322   9.4045
     9.4720   9.5177   9.6526   9.7312   9.8221   9.9705   9.9753  10.2032
    12.9016  13.0998  13.4439  13.6687  13.7189  13.8856  14.3802  14.6469
    14.7959  14.8289  15.1184  15.1763  16.3069  16.6527  17.0572  17.1440
    17.6385  17.7359  17.8032  17.9014  18.1560

     occupation numbers 
     1.0000   1.0000   1.0000   1.0000   1.0000   1.0000   1.0000   1.0000
     1.0000   1.0000   1.0000   1.0000   1.0000   1.0000   1.0000   1.0000
     1.0000   1.0000   1.0000   1.0000   1.0000   1.0000   1.0000   1.0000
     1.0000   1.0000   1.0000   1.0000   1.0000   1.0000   1.0000   1.0000
     1.0000   1.0000   1.0000   1.0000   1.0000   1.0000   1.0000   1.0000
     1.0000   1.0000   1.0000   1.0000   1.0000   1.0000   1.0000   1.0000
     1.0000   1.0000   1.0000   1.0000   1.0000   1.0000   1.0000   1.0000
     1.0000   1.0000   1.0000   1.0000   1.0000   1.0000   1.0000   1.0000
     1.0000   1.0000   1.0000   1.0000   1.0000   1.0000   1.0000   1.0000
     1.0000   1.0000   1.0000   1.0000   1.0000   1.0000   1.0000   1.0000
     1.0000   1.0000   1.0000   0.9999   0.9993   0.2967   0.0000   0.0000
     0.0000   0.0000   0.0000   0.0000   0.0000   0.0000   0.0000   0.0000
     0.0000   0.0000   0.0000   0.0000   0.0000

          k = 0.0000 0.5983 0.1414 ( 10075 PWs)   bands (ev):

   -48.6974 -48.6963 -48.6950 -48.6894 -23.0155 -23.0080 -22.9815 -22.9739
   -22.9736 -22.9693 -22.9565 -22.9485 -22.9484 -22.9439 -22.9423 -22.9366
   -21.9566 -21.9467 -21.9432 -21.9374  -6.5858  -6.4710  -6.4274  -5.9867
    -5.8909  -5.8786  -5.7642  -5.7637  -5.7189  -5.5543  -5.5534  -5.5359
    -4.0999  -4.0364  -3.9649  -3.9644  -3.9492  -3.9132  -3.8231  -3.8113
    -3.7624  -3.7330  -3.6627  -3.6615   5.7304   5.7365   6.3043   6.3473
     6.3736   6.3922   6.5741   6.7282   6.7680   6.7773   7.0170   7.0751
     7.0873   7.2601   7.2634   7.3327   7.4611   7.6805   7.6810   7.8360
     8.1022   8.1661   8.5931   8.7541   9.1694   9.2601   9.3853   9.4148
     9.4278   9.4885   9.6559   9.7561   9.8110   9.9261   9.9717  10.1794
    13.0458  13.2104  13.4692  13.6468  13.8134  13.9583  14.4061  14.5917
    14.6070  14.6204  14.9479  14.9828  16.7775  17.1165  17.1786  17.2498
    17.6393  17.7470  17.8023  17.9877  18.1673

     occupation numbers 
     1.0000   1.0000   1.0000   1.0000   1.0000   1.0000   1.0000   1.0000
     1.0000   1.0000   1.0000   1.0000   1.0000   1.0000   1.0000   1.0000
     1.0000   1.0000   1.0000   1.0000   1.0000   1.0000   1.0000   1.0000
     1.0000   1.0000   1.0000   1.0000   1.0000   1.0000   1.0000   1.0000
     1.0000   1.0000   1.0000   1.0000   1.0000   1.0000   1.0000   1.0000
     1.0000   1.0000   1.0000   1.0000   1.0000   1.0000   1.0000   1.0000
     1.0000   1.0000   1.0000   1.0000   1.0000   1.0000   1.0000   1.0000
     1.0000   1.0000   1.0000   1.0000   1.0000   1.0000   1.0000   1.0000
     1.0000   1.0000   1.0000   1.0000   1.0000   1.0000   1.0000   1.0000
     1.0000   1.0000   1.0000   1.0000   1.0000   1.0000   1.0000   1.0000
     1.0000   1.0000   1.0000   1.0000   0.9353   0.0118   0.0000   0.0000
     0.0000   0.0000   0.0000   0.0000   0.0000   0.0000   0.0000   0.0000
     0.0000   0.0000   0.0000   0.0000   0.0000

          k = 0.0000 0.5983 0.2829 ( 10090 PWs)   bands (ev):

   -48.6971 -48.6966 -48.6950 -48.6894 -22.9933 -22.9867 -22.9796 -22.9757
   -22.9729 -22.9699 -22.9658 -22.9590 -22.9536 -22.9501 -22.9481 -22.9444
   -21.9524 -21.9472 -21.9438 -21.9402  -6.4773  -6.4209  -6.2910  -6.0939
    -5.8586  -5.8449  -5.8011  -5.7263  -5.7059  -5.6960  -5.6381  -5.6261
    -4.0106  -4.0089  -4.0067  -3.9963  -3.9500  -3.9494  -3.9017  -3.8940
    -3.6921  -3.6823  -3.6569  -3.6535   6.3123   6.3368   6.3647   6.3708
     6.3779   6.3846   6.7811   6.7862   6.8435   6.9764   6.9801   7.0788
     7.0839   7.2024   7.2410   7.2513   7.3002   7.4319   7.4333   7.7426
     7.7443   7.7769   8.0729   8.1979   9.4478   9.4747   9.4754   9.4831
     9.5079   9.5976   9.7400   9.7632   9.7660   9.7881   9.9983  10.0946
    13.4430  13.5575  13.5656  13.5866  14.0834  14.0904  14.1059  14.1885
    14.4741  14.5186  14.5694  14.5759  17.5219  17.5283  17.7253  17.7544
    17.8021  17.8210  17.9384  17.9401  17.9912

     occupation numbers 
     1.0000   1.0000   1.0000   1.0000   1.0000   1.0000   1.0000   1.0000
     1.0000   1.0000   1.0000   1.0000   1.0000   1.0000   1.0000   1.0000
     1.0000   1.0000   1.0000   1.0000   1.0000   1.0000   1.0000   1.0000
     1.0000   1.0000   1.0000   1.0000   1.0000   1.0000   1.0000   1.0000
     1.0000   1.0000   1.0000   1.0000   1.0000   1.0000   1.0000   1.0000
     1.0000   1.0000   1.0000   1.0000   1.0000   1.0000   1.0000   1.0000
     1.0000   1.0000   1.0000   1.0000   1.0000   1.0000   1.0000   1.0000
     1.0000   1.0000   1.0000   1.0000   1.0000   1.0000   1.0000   1.0000
     1.0000   1.0000   1.0000   1.0000   1.0000   1.0000   1.0000   1.0000
     1.0000   1.0000   1.0000   1.0000   1.0000   1.0000   1.0000   1.0000
     1.0000   1.0000   1.0000   1.0000   0.0000   0.0000   0.0000   0.0000
     0.0000   0.0000   0.0000   0.0000   0.0000   0.0000   0.0000   0.0000
     0.0000   0.0000   0.0000   0.0000   0.0000

          k = 0.0000 0.5983 0.4243 ( 10090 PWs)   bands (ev):

   -48.6971 -48.6966 -48.6950 -48.6894 -22.9933 -22.9867 -22.9796 -22.9757
   -22.9729 -22.9699 -22.9658 -22.9590 -22.9536 -22.9501 -22.9481 -22.9444
   -21.9524 -21.9472 -21.9438 -21.9402  -6.4773  -6.4209  -6.2910  -6.0939
    -5.8586  -5.8449  -5.8011  -5.7263  -5.7059  -5.6960  -5.6381  -5.6261
    -4.0106  -4.0089  -4.0067  -3.9963  -3.9500  -3.9494  -3.9017  -3.8940
    -3.6921  -3.6823  -3.6569  -3.6535   6.3123   6.3368   6.3647   6.3708
     6.3779   6.3846   6.7811   6.7862   6.8435   6.9764   6.9801   7.0788
     7.0839   7.2024   7.2410   7.2513   7.3002   7.4319   7.4333   7.7427
     7.7443   7.7769   8.0729   8.1979   9.4478   9.4747   9.4754   9.4831
     9.5079   9.5976   9.7400   9.7632   9.7660   9.7881   9.9983  10.0946
    13.4430  13.5575  13.5656  13.5866  14.0834  14.0904  14.1059  14.1885
    14.4741  14.5186  14.5694  14.5759  17.5219  17.5283  17.7253  17.7544
    17.8021  17.8210  17.9384  17.9401  17.9912

     occupation numbers 
     1.0000   1.0000   1.0000   1.0000   1.0000   1.0000   1.0000   1.0000
     1.0000   1.0000   1.0000   1.0000   1.0000   1.0000   1.0000   1.0000
     1.0000   1.0000   1.0000   1.0000   1.0000   1.0000   1.0000   1.0000
     1.0000   1.0000   1.0000   1.0000   1.0000   1.0000   1.0000   1.0000
     1.0000   1.0000   1.0000   1.0000   1.0000   1.0000   1.0000   1.0000
     1.0000   1.0000   1.0000   1.0000   1.0000   1.0000   1.0000   1.0000
     1.0000   1.0000   1.0000   1.0000   1.0000   1.0000   1.0000   1.0000
     1.0000   1.0000   1.0000   1.0000   1.0000   1.0000   1.0000   1.0000
     1.0000   1.0000   1.0000   1.0000   1.0000   1.0000   1.0000   1.0000
     1.0000   1.0000   1.0000   1.0000   1.0000   1.0000   1.0000   1.0000
     1.0000   1.0000   1.0000   1.0000   0.0000   0.0000   0.0000   0.0000
     0.0000   0.0000   0.0000   0.0000   0.0000   0.0000   0.0000   0.0000
     0.0000   0.0000   0.0000   0.0000   0.0000

          k = 0.0000 0.5983 0.5658 ( 10075 PWs)   bands (ev):

   -48.6974 -48.6963 -48.6950 -48.6894 -23.0155 -23.0080 -22.9815 -22.9739
   -22.9736 -22.9693 -22.9565 -22.9485 -22.9484 -22.9439 -22.9423 -22.9366
   -21.9566 -21.9467 -21.9432 -21.9374  -6.5858  -6.4710  -6.4274  -5.9867
    -5.8909  -5.8786  -5.7642  -5.7637  -5.7189  -5.5543  -5.5534  -5.5359
    -4.0999  -4.0364  -3.9649  -3.9644  -3.9492  -3.9132  -3.8231  -3.8113
    -3.7624  -3.7330  -3.6627  -3.6615   5.7304   5.7365   6.3043   6.3473
     6.3736   6.3922   6.5741   6.7282   6.7680   6.7773   7.0170   7.0751
     7.0873   7.2601   7.2634   7.3327   7.4611   7.6805   7.6810   7.8360
     8.1022   8.1661   8.5931   8.7541   9.1694   9.2601   9.3853   9.4148
     9.4278   9.4885   9.6559   9.7561   9.8110   9.9261   9.9717  10.1794
    13.0458  13.2104  13.4692  13.6468  13.8134  13.9583  14.4061  14.5917
    14.6070  14.6204  14.9479  14.9828  16.7775  17.1165  17.1786  17.2498
    17.6393  17.7470  17.8023  17.9877  18.1673

     occupation numbers 
     1.0000   1.0000   1.0000   1.0000   1.0000   1.0000   1.0000   1.0000
     1.0000   1.0000   1.0000   1.0000   1.0000   1.0000   1.0000   1.0000
     1.0000   1.0000   1.0000   1.0000   1.0000   1.0000   1.0000   1.0000
     1.0000   1.0000   1.0000   1.0000   1.0000   1.0000   1.0000   1.0000
     1.0000   1.0000   1.0000   1.0000   1.0000   1.0000   1.0000   1.0000
     1.0000   1.0000   1.0000   1.0000   1.0000   1.0000   1.0000   1.0000
     1.0000   1.0000   1.0000   1.0000   1.0000   1.0000   1.0000   1.0000
     1.0000   1.0000   1.0000   1.0000   1.0000   1.0000   1.0000   1.0000
     1.0000   1.0000   1.0000   1.0000   1.0000   1.0000   1.0000   1.0000
     1.0000   1.0000   1.0000   1.0000   1.0000   1.0000   1.0000   1.0000
     1.0000   1.0000   1.0000   1.0000   0.9353   0.0118   0.0000   0.0000
     0.0000   0.0000   0.0000   0.0000   0.0000   0.0000   0.0000   0.0000
     0.0000   0.0000   0.0000   0.0000   0.0000

          k = 0.0000 0.7978 0.0000 ( 10070 PWs)   bands (ev):

   -48.6978 -48.6965 -48.6946 -48.6892 -23.0297 -23.0135 -22.9990 -22.9939
   -22.9925 -22.9887 -22.9348 -22.9334 -22.9286 -22.9272 -22.9271 -22.9237
   -21.9713 -21.9442 -21.9435 -21.9302  -6.7749  -6.6761  -6.3702  -6.0073
    -5.9817  -5.9203  -5.7057  -5.6588  -5.4872  -5.3700  -5.3610  -5.3269
    -4.2067  -4.1023  -4.0751  -3.9821  -3.9789  -3.9680  -3.9088  -3.9081
    -3.8621  -3.6874  -3.6505  -3.5629   5.4457   5.4900   5.6683   5.6852
     5.8321   5.9489   6.0771   6.3770   6.5221   6.6094   7.1120   7.4700
     7.5009   7.5538   7.7447   7.7483   7.8888   7.9220   8.0010   8.8148
     8.8454   8.8630   8.9811   9.0451   9.0645   9.0872   9.1888   9.3745
     9.4783   9.5623   9.7304   9.8519  10.3078  10.3117  10.3597  10.4508
    12.1991  12.2921  12.4739  12.6457  14.3833  14.4365  14.6475  14.6605
    15.1187  15.3875  15.5053  15.5504  15.9054  16.2723  16.2758  16.3359
    16.3415  16.6355  16.8305  17.5756  17.6585

     occupation numbers 
     1.0000   1.0000   1.0000   1.0000   1.0000   1.0000   1.0000   1.0000
     1.0000   1.0000   1.0000   1.0000   1.0000   1.0000   1.0000   1.0000
     1.0000   1.0000   1.0000   1.0000   1.0000   1.0000   1.0000   1.0000
     1.0000   1.0000   1.0000   1.0000   1.0000   1.0000   1.0000   1.0000
     1.0000   1.0000   1.0000   1.0000   1.0000   1.0000   1.0000   1.0000
     1.0000   1.0000   1.0000   1.0000   1.0000   1.0000   1.0000   1.0000
     1.0000   1.0000   1.0000   1.0000   1.0000   1.0000   1.0000   1.0000
     1.0000   1.0000   1.0000   1.0000   1.0000   1.0000   1.0000   1.0000
     1.0000   1.0000   1.0000   1.0000   1.0000   1.0000   1.0000   1.0000
     1.0000   1.0000   1.0000   1.0000   1.0000   1.0000   1.0000   1.0000
     1.0000   1.0000   1.0000   1.0000   0.0000   0.0000   0.0000   0.0000
     0.0000   0.0000   0.0000   0.0000   0.0000   0.0000   0.0000   0.0000
     0.0000   0.0000   0.0000   0.0000   0.0000

          k = 0.0000 0.7978 0.1414 ( 10059 PWs)   bands (ev):

   -48.6977 -48.6966 -48.6946 -48.6892 -23.0208 -23.0054 -22.9985 -22.9936
   -22.9930 -22.9891 -22.9441 -22.9357 -22.9327 -22.9283 -22.9275 -22.9239
   -21.9686 -21.9467 -21.9422 -21.9315  -6.7495  -6.6537  -6.2914  -5.9920
    -5.9759  -5.9263  -5.6779  -5.6336  -5.5797  -5.4607  -5.3884  -5.3765
    -4.1450  -4.1438  -3.9806  -3.9799  -3.9692  -3.9669  -3.9502  -3.8750
    -3.8727  -3.7287  -3.6702  -3.5923   5.6586   5.6698   5.6835   5.7453
     5.8540   5.9912   6.1095   6.4255   6.5845   6.5914   7.1889   7.3144
     7.3771   7.5345   7.6459   7.8046   7.8670   7.8707   7.9508   8.6061
     8.7548   8.7631   8.8389   9.1166   9.1453   9.2009   9.2241   9.3643
     9.4700   9.4956   9.6861   9.6985  10.2609  10.2618  10.3123  10.4025
    12.4117  12.5208  12.5285  12.6272  14.4174  14.4229  14.4572  14.5061
    15.1454  15.3306  15.3794  15.3824  16.3384  16.3422  16.3562  16.4223
    16.4334  16.8022  17.2545  17.7801  17.7805

     occupation numbers 
     1.0000   1.0000   1.0000   1.0000   1.0000   1.0000   1.0000   1.0000
     1.0000   1.0000   1.0000   1.0000   1.0000   1.0000   1.0000   1.0000
     1.0000   1.0000   1.0000   1.0000   1.0000   1.0000   1.0000   1.0000
     1.0000   1.0000   1.0000   1.0000   1.0000   1.0000   1.0000   1.0000
     1.0000   1.0000   1.0000   1.0000   1.0000   1.0000   1.0000   1.0000
     1.0000   1.0000   1.0000   1.0000   1.0000   1.0000   1.0000   1.0000
     1.0000   1.0000   1.0000   1.0000   1.0000   1.0000   1.0000   1.0000
     1.0000   1.0000   1.0000   1.0000   1.0000   1.0000   1.0000   1.0000
     1.0000   1.0000   1.0000   1.0000   1.0000   1.0000   1.0000   1.0000
     1.0000   1.0000   1.0000   1.0000   1.0000   1.0000   1.0000   1.0000
     1.0000   1.0000   1.0000   1.0000   0.0000   0.0000   0.0000   0.0000
     0.0000   0.0000   0.0000   0.0000   0.0000   0.0000   0.0000   0.0000
     0.0000   0.0000   0.0000   0.0000   0.0000

          k = 0.0000 0.7978 0.2829 ( 10077 PWs)   bands (ev):

   -48.6974 -48.6968 -48.6946 -48.6893 -22.9975 -22.9973 -22.9942 -22.9929
   -22.9897 -22.9842 -22.9680 -22.9573 -22.9318 -22.9285 -22.9279 -22.9244
   -21.9616 -21.9533 -21.9389 -21.9348  -6.6888  -6.6413  -6.0798  -5.9608
    -5.9418  -5.8920  -5.8082  -5.6783  -5.5996  -5.5639  -5.4871  -5.4692
    -4.1250  -4.0432  -3.9983  -3.9768  -3.9725  -3.9396  -3.9055  -3.8511
    -3.8425  -3.7797  -3.7380  -3.6726   5.6738   5.6793   5.8754   5.8806
     6.1285   6.2845   6.4106   6.5849   6.7674   6.8089   6.9677   7.0518
     7.1825   7.3927   7.6365   7.6762   7.6870   7.8110   7.9903   8.0682
     8.3540   8.3625   8.9115   9.0560   9.2926   9.3253   9.4441   9.4795
     9.5446   9.5557   9.6184   9.6324   9.9765  10.0290  10.3263  10.3518
    12.5190  12.5794  13.0936  13.1077  13.8256  13.8262  14.6784  14.7122
    15.0091  15.0320  15.2147  15.3002  16.3411  16.3435  16.8358  16.8441
    17.0906  17.3593  17.3765  17.5142  17.7425

     occupation numbers 
     1.0000   1.0000   1.0000   1.0000   1.0000   1.0000   1.0000   1.0000
     1.0000   1.0000   1.0000   1.0000   1.0000   1.0000   1.0000   1.0000
     1.0000   1.0000   1.0000   1.0000   1.0000   1.0000   1.0000   1.0000
     1.0000   1.0000   1.0000   1.0000   1.0000   1.0000   1.0000   1.0000
     1.0000   1.0000   1.0000   1.0000   1.0000   1.0000   1.0000   1.0000
     1.0000   1.0000   1.0000   1.0000   1.0000   1.0000   1.0000   1.0000
     1.0000   1.0000   1.0000   1.0000   1.0000   1.0000   1.0000   1.0000
     1.0000   1.0000   1.0000   1.0000   1.0000   1.0000   1.0000   1.0000
     1.0000   1.0000   1.0000   1.0000   1.0000   1.0000   1.0000   1.0000
     1.0000   1.0000   1.0000   1.0000   1.0000   1.0000   1.0000   1.0000
     1.0000   1.0000   1.0000   1.0000   0.8883   0.8857   0.0000   0.0000
     0.0000   0.0000   0.0000   0.0000   0.0000   0.0000   0.0000   0.0000
     0.0000   0.0000   0.0000   0.0000   0.0000

          k = 0.0000 0.7978 0.4243 ( 10077 PWs)   bands (ev):

   -48.6974 -48.6968 -48.6946 -48.6893 -22.9975 -22.9973 -22.9942 -22.9929
   -22.9897 -22.9842 -22.9680 -22.9573 -22.9318 -22.9285 -22.9279 -22.9244
   -21.9616 -21.9533 -21.9389 -21.9348  -6.6888  -6.6413  -6.0798  -5.9608
    -5.9418  -5.8920  -5.8082  -5.6783  -5.5996  -5.5639  -5.4871  -5.4692
    -4.1250  -4.0432  -3.9983  -3.9768  -3.9725  -3.9396  -3.9055  -3.8511
    -3.8425  -3.7797  -3.7380  -3.6726   5.6738   5.6793   5.8754   5.8806
     6.1285   6.2845   6.4106   6.5849   6.7674   6.8089   6.9677   7.0518
     7.1825   7.3927   7.6365   7.6762   7.6870   7.8110   7.9903   8.0682
     8.3540   8.3625   8.9115   9.0560   9.2926   9.3253   9.4441   9.4795
     9.5446   9.5557   9.6184   9.6324   9.9765  10.0290  10.3263  10.3518
    12.5190  12.5794  13.0936  13.1077  13.8256  13.8262  14.6784  14.7122
    15.0091  15.0320  15.2147  15.3002  16.3411  16.3435  16.8358  16.8441
    17.0906  17.3593  17.3765  17.5142  17.7425

     occupation numbers 
     1.0000   1.0000   1.0000   1.0000   1.0000   1.0000   1.0000   1.0000
     1.0000   1.0000   1.0000   1.0000   1.0000   1.0000   1.0000   1.0000
     1.0000   1.0000   1.0000   1.0000   1.0000   1.0000   1.0000   1.0000
     1.0000   1.0000   1.0000   1.0000   1.0000   1.0000   1.0000   1.0000
     1.0000   1.0000   1.0000   1.0000   1.0000   1.0000   1.0000   1.0000
     1.0000   1.0000   1.0000   1.0000   1.0000   1.0000   1.0000   1.0000
     1.0000   1.0000   1.0000   1.0000   1.0000   1.0000   1.0000   1.0000
     1.0000   1.0000   1.0000   1.0000   1.0000   1.0000   1.0000   1.0000
     1.0000   1.0000   1.0000   1.0000   1.0000   1.0000   1.0000   1.0000
     1.0000   1.0000   1.0000   1.0000   1.0000   1.0000   1.0000   1.0000
     1.0000   1.0000   1.0000   1.0000   0.8883   0.8857   0.0000   0.0000
     0.0000   0.0000   0.0000   0.0000   0.0000   0.0000   0.0000   0.0000
     0.0000   0.0000   0.0000   0.0000   0.0000

          k = 0.0000 0.7978 0.5658 ( 10059 PWs)   bands (ev):

   -48.6977 -48.6966 -48.6946 -48.6892 -23.0208 -23.0054 -22.9985 -22.9936
   -22.9930 -22.9891 -22.9441 -22.9357 -22.9327 -22.9283 -22.9275 -22.9239
   -21.9686 -21.9467 -21.9422 -21.9315  -6.7495  -6.6537  -6.2914  -5.9920
    -5.9759  -5.9263  -5.6779  -5.6336  -5.5797  -5.4607  -5.3884  -5.3765
    -4.1450  -4.1438  -3.9806  -3.9799  -3.9692  -3.9669  -3.9502  -3.8750
    -3.8727  -3.7287  -3.6702  -3.5923   5.6586   5.6698   5.6835   5.7453
     5.8540   5.9912   6.1095   6.4255   6.5845   6.5914   7.1889   7.3144
     7.3771   7.5345   7.6459   7.8046   7.8670   7.8707   7.9508   8.6061
     8.7548   8.7631   8.8389   9.1166   9.1453   9.2009   9.2241   9.3643
     9.4700   9.4956   9.6861   9.6985  10.2609  10.2618  10.3123  10.4025
    12.4117  12.5208  12.5285  12.6272  14.4174  14.4229  14.4572  14.5061
    15.1454  15.3306  15.3794  15.3824  16.3384  16.3422  16.3562  16.4223
    16.4334  16.8022  17.2545  17.7801  17.7805

     occupation numbers 
     1.0000   1.0000   1.0000   1.0000   1.0000   1.0000   1.0000   1.0000
     1.0000   1.0000   1.0000   1.0000   1.0000   1.0000   1.0000   1.0000
     1.0000   1.0000   1.0000   1.0000   1.0000   1.0000   1.0000   1.0000
     1.0000   1.0000   1.0000   1.0000   1.0000   1.0000   1.0000   1.0000
     1.0000   1.0000   1.0000   1.0000   1.0000   1.0000   1.0000   1.0000
     1.0000   1.0000   1.0000   1.0000   1.0000   1.0000   1.0000   1.0000
     1.0000   1.0000   1.0000   1.0000   1.0000   1.0000   1.0000   1.0000
     1.0000   1.0000   1.0000   1.0000   1.0000   1.0000   1.0000   1.0000
     1.0000   1.0000   1.0000   1.0000   1.0000   1.0000   1.0000   1.0000
     1.0000   1.0000   1.0000   1.0000   1.0000   1.0000   1.0000   1.0000
     1.0000   1.0000   1.0000   1.0000   0.0000   0.0000   0.0000   0.0000
     0.0000   0.0000   0.0000   0.0000   0.0000   0.0000   0.0000   0.0000
     0.0000   0.0000   0.0000   0.0000   0.0000

          k = 0.2000 0.0000 0.0000 ( 10070 PWs)   bands (ev):

   -48.6978 -48.6965 -48.6946 -48.6892 -23.0296 -23.0134 -22.9970 -22.9959
   -22.9922 -22.9891 -22.9348 -22.9313 -22.9308 -22.9272 -22.9267 -22.9241
   -21.9712 -21.9442 -21.9434 -21.9302  -6.7744  -6.6770  -6.3722  -6.0074
    -5.9824  -5.9209  -5.7118  -5.6517  -5.4818  -5.3729  -5.3643  -5.3326
[...]
    17.3747  17.7489  17.8622  18.0311  18.1817

     occupation numbers 
     1.0000   1.0000   1.0000   1.0000   1.0000   1.0000   1.0000   1.0000
     1.0000   1.0000   1.0000   1.0000   1.0000   1.0000   1.0000   1.0000
     1.0000   1.0000   1.0000   1.0000   1.0000   1.0000   1.0000   1.0000
     1.0000   1.0000   1.0000   1.0000   1.0000   1.0000   1.0000   1.0000
     1.0000   1.0000   1.0000   1.0000   1.0000   1.0000   1.0000   1.0000
     1.0000   1.0000   1.0000   1.0000   1.0000   1.0000   1.0000   1.0000
     1.0000   1.0000   1.0000   1.0000   1.0000   1.0000   1.0000   1.0000
     1.0000   1.0000   1.0000   1.0000   1.0000   1.0000   1.0000   1.0000
     1.0000   1.0000   1.0000   1.0000   1.0000   1.0000   1.0000   1.0000
     1.0000   1.0000   1.0000   1.0000   1.0000   1.0000   1.0000   1.0000
     1.0000   1.0000   0.9346   0.9003   0.0677   0.0000   0.0000   0.0000
     0.0000   0.0000   0.0000   0.0000   0.0000   0.0000   0.0000   0.0000
     0.0000   0.0000   0.0000   0.0000   0.0000

          k = 0.8000 0.5983 0.2829 ( 10087 PWs)   bands (ev):

   -48.6971 -48.6966 -48.6950 -48.6894 -23.0009 -22.9967 -22.9925 -22.9861
   -22.9813 -22.9764 -22.9644 -22.9585 -22.9477 -22.9443 -22.9274 -22.9242
   -21.9502 -21.9464 -21.9433 -21.9408  -6.5715  -6.4586  -6.4348  -6.2252
    -5.8781  -5.7754  -5.7727  -5.7124  -5.7070  -5.6738  -5.5668  -5.5462
    -4.0498  -4.0356  -3.9748  -3.9675  -3.8631  -3.8414  -3.8255  -3.8053
    -3.6941  -3.6741  -3.6634  -3.6623   5.7576   5.7643   6.2782   6.3388
     6.3610   6.4088   6.5280   6.5840   6.7668   6.9255   6.9926   7.0825
     7.1647   7.2562   7.3238   7.4491   7.4578   7.5605   7.6722   7.7704
     7.8863   8.0954   8.6010   8.6905   9.1793   9.2470   9.2739   9.3542
     9.3991   9.4913   9.4936   9.6129   9.6843   9.7664   9.9594  10.0958
    13.1751  13.6454  13.8179  13.8618  13.9715  14.0189  14.2079  14.4050
    14.5792  14.6009  14.6549  14.8808  16.8726  17.0947  17.6362  17.7629
    17.7790  17.9960  18.0241  18.0814  18.2107

     occupation numbers 
     1.0000   1.0000   1.0000   1.0000   1.0000   1.0000   1.0000   1.0000
     1.0000   1.0000   1.0000   1.0000   1.0000   1.0000   1.0000   1.0000
     1.0000   1.0000   1.0000   1.0000   1.0000   1.0000   1.0000   1.0000
     1.0000   1.0000   1.0000   1.0000   1.0000   1.0000   1.0000   1.0000
     1.0000   1.0000   1.0000   1.0000   1.0000   1.0000   1.0000   1.0000
     1.0000   1.0000   1.0000   1.0000   1.0000   1.0000   1.0000   1.0000
     1.0000   1.0000   1.0000   1.0000   1.0000   1.0000   1.0000   1.0000
     1.0000   1.0000   1.0000   1.0000   1.0000   1.0000   1.0000   1.0000
     1.0000   1.0000   1.0000   1.0000   1.0000   1.0000   1.0000   1.0000
     1.0000   1.0000   1.0000   1.0000   1.0000   1.0000   1.0000   1.0000
     1.0000   1.0000   0.9206   0.5745   0.0062   0.0006   0.0000   0.0000
     0.0000   0.0000   0.0000   0.0000   0.0000   0.0000   0.0000   0.0000
     0.0000   0.0000   0.0000   0.0000   0.0000

          k = 0.8000 0.5983 0.4243 ( 10087 PWs)   bands (ev):

   -48.6971 -48.6966 -48.6950 -48.6894 -23.0009 -22.9967 -22.9925 -22.9861
   -22.9813 -22.9764 -22.9644 -22.9585 -22.9477 -22.9443 -22.9274 -22.9242
   -21.9502 -21.9464 -21.9433 -21.9408  -6.5715  -6.4586  -6.4348  -6.2252
    -5.8781  -5.7754  -5.7727  -5.7124  -5.7070  -5.6738  -5.5668  -5.5462
    -4.0498  -4.0356  -3.9748  -3.9675  -3.8631  -3.8414  -3.8255  -3.8053
    -3.6941  -3.6741  -3.6634  -3.6623   5.7576   5.7643   6.2782   6.3388
     6.3610   6.4088   6.5280   6.5840   6.7668   6.9255   6.9926   7.0825
     7.1647   7.2562   7.3238   7.4491   7.4578   7.5605   7.6722   7.7704
     7.8863   8.0954   8.6010   8.6905   9.1793   9.2470   9.2739   9.3542
     9.3991   9.4913   9.4936   9.6129   9.6843   9.7664   9.9594  10.0958
    13.1751  13.6454  13.8179  13.8618  13.9715  14.0189  14.2079  14.4050
    14.5792  14.6009  14.6549  14.8808  16.8726  17.0947  17.6362  17.7629
    17.7790  17.9960  18.0241  18.0814  18.2107

     occupation numbers 
     1.0000   1.0000   1.0000   1.0000   1.0000   1.0000   1.0000   1.0000
     1.0000   1.0000   1.0000   1.0000   1.0000   1.0000   1.0000   1.0000
     1.0000   1.0000   1.0000   1.0000   1.0000   1.0000   1.0000   1.0000
     1.0000   1.0000   1.0000   1.0000   1.0000   1.0000   1.0000   1.0000
     1.0000   1.0000   1.0000   1.0000   1.0000   1.0000   1.0000   1.0000
     1.0000   1.0000   1.0000   1.0000   1.0000   1.0000   1.0000   1.0000
     1.0000   1.0000   1.0000   1.0000   1.0000   1.0000   1.0000   1.0000
     1.0000   1.0000   1.0000   1.0000   1.0000   1.0000   1.0000   1.0000
     1.0000   1.0000   1.0000   1.0000   1.0000   1.0000   1.0000   1.0000
     1.0000   1.0000   1.0000   1.0000   1.0000   1.0000   1.0000   1.0000
     1.0000   1.0000   0.9206   0.5745   0.0062   0.0006   0.0000   0.0000
     0.0000   0.0000   0.0000   0.0000   0.0000   0.0000   0.0000   0.0000
     0.0000   0.0000   0.0000   0.0000   0.0000

          k = 0.8000 0.5983 0.5658 ( 10098 PWs)   bands (ev):

   -48.6974 -48.6963 -48.6951 -48.6894 -23.0143 -23.0076 -23.0033 -22.9941
   -22.9836 -22.9743 -22.9483 -22.9438 -22.9422 -22.9367 -22.9279 -22.9236
   -21.9534 -21.9454 -21.9434 -21.9387  -6.6979  -6.6074  -6.4117  -6.0653
    -5.9543  -5.8557  -5.7436  -5.6633  -5.6067  -5.6050  -5.5571  -5.5237
    -4.0446  -3.9837  -3.9753  -3.9696  -3.9018  -3.8461  -3.8092  -3.7716
    -3.7420  -3.6780  -3.6597  -3.6339   5.6548   5.7277   5.7671   5.8741
     6.1104   6.2149   6.4309   6.5239   6.7013   6.9723   7.0493   7.3312
     7.3610   7.4037   7.4351   7.5260   7.6924   7.6947   7.7428   7.9900
     8.0627   8.6317   8.7333   8.9180   9.0657   9.0993   9.2371   9.2991
     9.3040   9.3292   9.5272   9.5623   9.6414   9.6601  10.0748  10.3194
    12.5763  13.2195  13.8137  13.8230  13.9215  14.4299  14.4776  14.5424
    14.6830  14.7249  14.8230  15.2172  16.3528  16.9185  17.1698  17.3454
    17.3747  17.7489  17.8622  18.0311  18.1817

     occupation numbers 
     1.0000   1.0000   1.0000   1.0000   1.0000   1.0000   1.0000   1.0000
     1.0000   1.0000   1.0000   1.0000   1.0000   1.0000   1.0000   1.0000
     1.0000   1.0000   1.0000   1.0000   1.0000   1.0000   1.0000   1.0000
     1.0000   1.0000   1.0000   1.0000   1.0000   1.0000   1.0000   1.0000
     1.0000   1.0000   1.0000   1.0000   1.0000   1.0000   1.0000   1.0000
     1.0000   1.0000   1.0000   1.0000   1.0000   1.0000   1.0000   1.0000
     1.0000   1.0000   1.0000   1.0000   1.0000   1.0000   1.0000   1.0000
     1.0000   1.0000   1.0000   1.0000   1.0000   1.0000   1.0000   1.0000
     1.0000   1.0000   1.0000   1.0000   1.0000   1.0000   1.0000   1.0000
     1.0000   1.0000   1.0000   1.0000   1.0000   1.0000   1.0000   1.0000
     1.0000   1.0000   0.9346   0.9003   0.0677   0.0000   0.0000   0.0000
     0.0000   0.0000   0.0000   0.0000   0.0000   0.0000   0.0000   0.0000
     0.0000   0.0000   0.0000   0.0000   0.0000

          k = 0.8000 0.7978 0.0000 ( 10066 PWs)   bands (ev):

   -48.6977 -48.6964 -48.6948 -48.6893 -23.0274 -23.0139 -23.0082 -22.9998
   -22.9742 -22.9696 -22.9556 -22.9471 -22.9344 -22.9275 -22.9209 -22.9163
   -21.9658 -21.9440 -21.9435 -21.9327  -6.7201  -6.6775  -6.4938  -6.0186
    -5.8685  -5.8538  -5.7761  -5.6199  -5.5576  -5.4481  -5.4455  -5.4379
    -4.1222  -3.9936  -3.9899  -3.9776  -3.9736  -3.9360  -3.9164  -3.8332
    -3.8126  -3.7346  -3.6320  -3.5885   5.3973   5.4850   5.5053   5.6230
     6.1089   6.1822   6.4851   6.6026   6.6584   6.6913   6.7134   7.2515
     7.3282   7.5746   7.6400   7.6840   7.8229   7.9645   7.9699   8.5952
     8.7665   8.7804   8.7858   8.9583   9.0008   9.0838   9.0859   9.1321
     9.3278   9.6148   9.8626   9.8642  10.0862  10.0917  10.1064  10.4980
    11.9579  12.9666  12.9711  13.0879  13.8316  14.6268  14.6360  14.7481
    14.9774  15.2243  15.2307  15.6117  15.6977  16.4816  16.5139  16.5674
    16.7642  16.7747  17.3596  17.5461  18.1318

     occupation numbers 
     1.0000   1.0000   1.0000   1.0000   1.0000   1.0000   1.0000   1.0000
     1.0000   1.0000   1.0000   1.0000   1.0000   1.0000   1.0000   1.0000
     1.0000   1.0000   1.0000   1.0000   1.0000   1.0000   1.0000   1.0000
     1.0000   1.0000   1.0000   1.0000   1.0000   1.0000   1.0000   1.0000
     1.0000   1.0000   1.0000   1.0000   1.0000   1.0000   1.0000   1.0000
     1.0000   1.0000   1.0000   1.0000   1.0000   1.0000   1.0000   1.0000
     1.0000   1.0000   1.0000   1.0000   1.0000   1.0000   1.0000   1.0000
     1.0000   1.0000   1.0000   1.0000   1.0000   1.0000   1.0000   1.0000
     1.0000   1.0000   1.0000   1.0000   1.0000   1.0000   1.0000   1.0000
     1.0000   1.0000   1.0000   1.0000   1.0000   1.0000   1.0000   1.0000
     1.0000   1.0000   1.0000   1.0000   0.8555   0.0000   0.0000   0.0000
     0.0000   0.0000   0.0000   0.0000   0.0000   0.0000   0.0000   0.0000
     0.0000   0.0000   0.0000   0.0000   0.0000

          k = 0.8000 0.7978 0.1414 ( 10062 PWs)   bands (ev):

   -48.6976 -48.6965 -48.6948 -48.6893 -23.0187 -23.0075 -23.0058 -23.0005
   -22.9739 -22.9699 -22.9552 -22.9477 -22.9431 -22.9359 -22.9207 -22.9165
   -21.9636 -21.9460 -21.9425 -21.9337  -6.6851  -6.6601  -6.4202  -5.9949
    -5.8747  -5.8673  -5.7435  -5.7344  -5.5448  -5.5257  -5.4541  -5.4466
    -4.1461  -3.9737  -3.9695  -3.9664  -3.9475  -3.9400  -3.9248  -3.8435
    -3.8017  -3.7275  -3.6685  -3.6138   5.4793   5.5060   5.7398   5.8017
     6.1517   6.2314   6.4885   6.6021   6.6896   6.6970   6.8218   7.2247
     7.3300   7.3509   7.4814   7.7088   7.7434   7.9044   7.9380   8.4007
     8.6270   8.6480   8.6845   9.0470   9.0643   9.1051   9.1949   9.3423
     9.3450   9.6008   9.6378   9.7255  10.0143  10.0753  10.1096  10.4131
    12.2793  12.9874  13.0727  13.0751  13.9319  14.4039  14.5290  14.6822
    15.0015  15.0511  15.1988  15.4609  15.9755  16.4690  16.6919  16.7041
    16.9851  17.2092  17.4393  17.7358  17.9545

     occupation numbers 
     1.0000   1.0000   1.0000   1.0000   1.0000   1.0000   1.0000   1.0000
     1.0000   1.0000   1.0000   1.0000   1.0000   1.0000   1.0000   1.0000
     1.0000   1.0000   1.0000   1.0000   1.0000   1.0000   1.0000   1.0000
     1.0000   1.0000   1.0000   1.0000   1.0000   1.0000   1.0000   1.0000
     1.0000   1.0000   1.0000   1.0000   1.0000   1.0000   1.0000   1.0000
     1.0000   1.0000   1.0000   1.0000   1.0000   1.0000   1.0000   1.0000
     1.0000   1.0000   1.0000   1.0000   1.0000   1.0000   1.0000   1.0000
     1.0000   1.0000   1.0000   1.0000   1.0000   1.0000   1.0000   1.0000
     1.0000   1.0000   1.0000   1.0000   1.0000   1.0000   1.0000   1.0000
     1.0000   1.0000   1.0000   1.0000   1.0000   1.0000   1.0000   1.0000
     1.0000   1.0000   1.0000   1.0000   0.0417   0.0000   0.0000   0.0000
     0.0000   0.0000   0.0000   0.0000   0.0000   0.0000   0.0000   0.0000
     0.0000   0.0000   0.0000   0.0000   0.0000

          k = 0.8000 0.7978 0.2829 ( 10082 PWs)   bands (ev):

   -48.6973 -48.6968 -48.6947 -48.6893 -23.0058 -23.0021 -22.9958 -22.9847
   -22.9733 -22.9706 -22.9673 -22.9578 -22.9527 -22.9490 -22.9202 -22.9170
   -21.9581 -21.9513 -21.9398 -21.9364  -6.6292  -6.6268  -6.2233  -5.9679
    -5.9050  -5.8867  -5.8819  -5.7160  -5.6530  -5.5344  -5.5119  -5.4739
    -4.1368  -4.0665  -3.9633  -3.9505  -3.8994  -3.8810  -3.8665  -3.8225
    -3.7644  -3.7573  -3.7494  -3.6804   5.5058   5.5078   6.2523   6.3087
     6.3813   6.3967   6.4943   6.6376   6.7027   6.9445   6.9495   7.0691
     7.0992   7.1287   7.2576   7.4567   7.7663   7.7788   7.8330   7.8673
     8.1263   8.4267   8.7334   8.9381   9.1496   9.2131   9.4031   9.5077
     9.5239   9.5835   9.6338   9.6743   9.8096   9.9734  10.1267  10.2117
    12.9042  13.0313  13.1102  13.4410  13.8030  14.0029  14.2252  14.6459
    14.8524  15.0657  15.1085  15.1711  16.2887  16.4184  17.0705  17.1434
    17.5411  17.6414  17.7216  17.8187  18.0393

     occupation numbers 
     1.0000   1.0000   1.0000   1.0000   1.0000   1.0000   1.0000   1.0000
     1.0000   1.0000   1.0000   1.0000   1.0000   1.0000   1.0000   1.0000
     1.0000   1.0000   1.0000   1.0000   1.0000   1.0000   1.0000   1.0000
     1.0000   1.0000   1.0000   1.0000   1.0000   1.0000   1.0000   1.0000
     1.0000   1.0000   1.0000   1.0000   1.0000   1.0000   1.0000   1.0000
     1.0000   1.0000   1.0000   1.0000   1.0000   1.0000   1.0000   1.0000
     1.0000   1.0000   1.0000   1.0000   1.0000   1.0000   1.0000   1.0000
     1.0000   1.0000   1.0000   1.0000   1.0000   1.0000   1.0000   1.0000
     1.0000   1.0000   1.0000   1.0000   1.0000   1.0000   1.0000   1.0000
     1.0000   1.0000   1.0000   1.0000   1.0000   1.0000   1.0000   1.0000
     1.0000   1.0000   1.0000   1.0000   0.9601   0.0013   0.0000   0.0000
     0.0000   0.0000   0.0000   0.0000   0.0000   0.0000   0.0000   0.0000
     0.0000   0.0000   0.0000   0.0000   0.0000

          k = 0.8000 0.7978 0.4243 ( 10082 PWs)   bands (ev):

   -48.6973 -48.6968 -48.6947 -48.6893 -23.0058 -23.0021 -22.9958 -22.9847
   -22.9733 -22.9706 -22.9673 -22.9578 -22.9527 -22.9490 -22.9202 -22.9170
   -21.9581 -21.9513 -21.9398 -21.9364  -6.6292  -6.6268  -6.2233  -5.9679
    -5.9050  -5.8867  -5.8819  -5.7160  -5.6530  -5.5344  -5.5119  -5.4739
    -4.1368  -4.0665  -3.9633  -3.9505  -3.8994  -3.8810  -3.8665  -3.8225
    -3.7644  -3.7573  -3.7494  -3.6804   5.5058   5.5078   6.2523   6.3087
     6.3813   6.3967   6.4943   6.6376   6.7027   6.9445   6.9495   7.0691
     7.0992   7.1287   7.2576   7.4567   7.7663   7.7788   7.8330   7.8673
     8.1263   8.4267   8.7334   8.9381   9.1496   9.2131   9.4031   9.5077
     9.5239   9.5835   9.6338   9.6743   9.8096   9.9734  10.1267  10.2117
    12.9042  13.0313  13.1102  13.4410  13.8030  14.0029  14.2252  14.6459
    14.8524  15.0657  15.1085  15.1711  16.2887  16.4184  17.0705  17.1434
    17.5411  17.6414  17.7216  17.8187  18.0393

     occupation numbers 
     1.0000   1.0000   1.0000   1.0000   1.0000   1.0000   1.0000   1.0000
     1.0000   1.0000   1.0000   1.0000   1.0000   1.0000   1.0000   1.0000
     1.0000   1.0000   1.0000   1.0000   1.0000   1.0000   1.0000   1.0000
     1.0000   1.0000   1.0000   1.0000   1.0000   1.0000   1.0000   1.0000
     1.0000   1.0000   1.0000   1.0000   1.0000   1.0000   1.0000   1.0000
     1.0000   1.0000   1.0000   1.0000   1.0000   1.0000   1.0000   1.0000
     1.0000   1.0000   1.0000   1.0000   1.0000   1.0000   1.0000   1.0000
     1.0000   1.0000   1.0000   1.0000   1.0000   1.0000   1.0000   1.0000
     1.0000   1.0000   1.0000   1.0000   1.0000   1.0000   1.0000   1.0000
     1.0000   1.0000   1.0000   1.0000   1.0000   1.0000   1.0000   1.0000
     1.0000   1.0000   1.0000   1.0000   0.9601   0.0013   0.0000   0.0000
     0.0000   0.0000   0.0000   0.0000   0.0000   0.0000   0.0000   0.0000
     0.0000   0.0000   0.0000   0.0000   0.0000

          k = 0.8000 0.7978 0.5658 ( 10062 PWs)   bands (ev):

   -48.6976 -48.6965 -48.6948 -48.6893 -23.0187 -23.0075 -23.0058 -23.0005
   -22.9739 -22.9699 -22.9552 -22.9477 -22.9431 -22.9359 -22.9207 -22.9165
   -21.9636 -21.9460 -21.9425 -21.9337  -6.6851  -6.6601  -6.4202  -5.9949
    -5.8747  -5.8673  -5.7435  -5.7344  -5.5448  -5.5257  -5.4541  -5.4466
    -4.1461  -3.9737  -3.9695  -3.9664  -3.9475  -3.9400  -3.9248  -3.8435
    -3.8017  -3.7275  -3.6685  -3.6138   5.4793   5.5060   5.7398   5.8017
     6.1517   6.2314   6.4885   6.6021   6.6896   6.6970   6.8218   7.2247
     7.3300   7.3509   7.4814   7.7088   7.7434   7.9044   7.9380   8.4007
     8.6270   8.6480   8.6845   9.0470   9.0643   9.1051   9.1949   9.3423
     9.3450   9.6008   9.6378   9.7255  10.0143  10.0753  10.1096  10.4131
    12.2793  12.9874  13.0727  13.0751  13.9319  14.4039  14.5290  14.6822
    15.0015  15.0511  15.1988  15.4609  15.9755  16.4690  16.6919  16.7041
    16.9851  17.2092  17.4393  17.7358  17.9545

     occupation numbers 
     1.0000   1.0000   1.0000   1.0000   1.0000   1.0000   1.0000   1.0000
     1.0000   1.0000   1.0000   1.0000   1.0000   1.0000   1.0000   1.0000
     1.0000   1.0000   1.0000   1.0000   1.0000   1.0000   1.0000   1.0000
     1.0000   1.0000   1.0000   1.0000   1.0000   1.0000   1.0000   1.0000
     1.0000   1.0000   1.0000   1.0000   1.0000   1.0000   1.0000   1.0000
     1.0000   1.0000   1.0000   1.0000   1.0000   1.0000   1.0000   1.0000
     1.0000   1.0000   1.0000   1.0000   1.0000   1.0000   1.0000   1.0000
     1.0000   1.0000   1.0000   1.0000   1.0000   1.0000   1.0000   1.0000
     1.0000   1.0000   1.0000   1.0000   1.0000   1.0000   1.0000   1.0000
     1.0000   1.0000   1.0000   1.0000   1.0000   1.0000   1.0000   1.0000
     1.0000   1.0000   1.0000   1.0000   0.0417   0.0000   0.0000   0.0000
     0.0000   0.0000   0.0000   0.0000   0.0000   0.0000   0.0000   0.0000
     0.0000   0.0000   0.0000   0.0000   0.0000

     the Fermi energy is    13.8679 ev
     (compare with:    13.8659 eV, computed in scf)
     The nscf band energy is:      -49.42960700 Ry
     Calculation interrupted for call of DMFT code

     Writing all to output data dir ./out/smo.save/ :
     XML data file, pseudopotentials, collected wavefunctions

     init_run     :      3.75s CPU      4.10s WALL (       1 calls)
     electrons    :    155.79s CPU    157.89s WALL (       1 calls)

     Called by init_run:
     wfcinit      :      0.00s CPU      0.00s WALL (       1 calls)
     wfcinit:atom :      0.13s CPU      0.20s WALL (       2 calls)
     wfcinit:wfcr :      4.27s CPU      4.36s WALL (       2 calls)
     potinit      :      1.72s CPU      2.00s WALL (       1 calls)
     hinit0       :      1.83s CPU      1.87s WALL (       1 calls)

     Called by electrons:
     c_bands      :    155.62s CPU    157.42s WALL (       1 calls)
     v_of_rho     :      1.02s CPU      1.23s WALL (       1 calls)
     v_h          :      0.03s CPU      0.04s WALL (       1 calls)
     v_xc         :      0.99s CPU      1.19s WALL (       1 calls)
     newd         :      0.10s CPU      0.10s WALL (       1 calls)
     PAW_pot      :      0.09s CPU      0.09s WALL (       1 calls)

     Called by c_bands:
     init_us_2    :      0.34s CPU      0.45s WALL (       2 calls)
     cegterg      :    144.52s CPU    146.01s WALL (      12 calls)

     Called by sum_band:

     Called by *egterg:
     cdiaghg      :      4.37s CPU      4.38s WALL (     242 calls)
     cegterg:over :     12.76s CPU     12.82s WALL (     240 calls)
     cegterg:upda :     10.20s CPU     10.24s WALL (     240 calls)
     cegterg:last :     17.24s CPU     17.31s WALL (      60 calls)
     h_psi        :     89.04s CPU     89.75s WALL (     254 calls)
     s_psi        :     10.48s CPU     10.49s WALL (     254 calls)
     g_psi        :      0.85s CPU      0.85s WALL (     240 calls)

     Called by h_psi:
     h_psi:calbec :     10.73s CPU     10.85s WALL (     254 calls)
     vloc_psi     :     66.42s CPU     66.52s WALL (     254 calls)
                                        0.00s GPU  (     254 calls)
     add_vuspsi   :     10.79s CPU     10.81s WALL (     254 calls)

     General routines
     calbec       :     10.73s CPU     10.85s WALL (     254 calls)
     fft          :      1.05s CPU      1.06s WALL (      13 calls)
     ffts         :      0.24s CPU      0.24s WALL (       1 calls)
     fftw         :     54.78s CPU     54.84s WALL (   13606 calls)
     interpolate  :      0.31s CPU      0.31s WALL (       1 calls)
     davcio       :      0.00s CPU      0.07s WALL (       4 calls)

     Parallel routines

     PAW routines
     PAW_pot      :      0.09s CPU      0.09s WALL (       1 calls)

     PWSCF        :   2m39.89s CPU   2m42.56s WALL


   This run was terminated on:  15:43:19   5Jun2025            

=------------------------------------------------------------------------------=
   JOB DONE.
=------------------------------------------------------------------------------=
