
     Program PWSCF v.7.5 starts on 29Nov2025 at 20:34:52 
        Git branch: develop
        Last git commit: 70e07caa2a5fab3dd9374bc01196f67e923fc5ea
        Last git commit date: Mon Aug 18 10:06:47 2025 +0000
        Last git commit subject: Merge branch 'stressed-by-optional-variables' into

     This program is part of the open-source Quantum ESPRESSO suite
     for quantum simulation of materials; please cite
         "P. Giannozzi et al., J. Phys.:Condens. Matter 21 395502 (2009);
         "P. Giannozzi et al., J. Phys.:Condens. Matter 29 465901 (2017);
         "P. Giannozzi et al., J. Chem. Phys. 152 154105 (2020);
          URL http://www.quantum-espresso.org", 
     in publications or presentations arising from this work. More details at
     http://www.quantum-espresso.org/quote

     Parallel version (MPI), running on   128 processors

     MPI processes distributed on     1 nodes
     952769 MiB available memory on the printing compute node when the environment starts

     Waiting for input...
     Reading input from standard input
Warning: card &CELL ignored
Warning: card &FCP ignored
Warning: card &RISM ignored

     Current dimensions of program PWSCF are:
     Max number of different atomic species (ntypx) = 10
     Max number of k-points (npk) =  40000
     Max angular momentum in pseudopotentials (lmaxx) =  4
     file Sr.pz-spn-kjpaw_psl.1.0.0.UPF: wavefunction(s)  4P renormalized
     file Mo.pz-spn-kjpaw_psl.1.0.0.UPF: wavefunction(s)  4S 4D renormalized
     file O.pz-n-kjpaw_psl.1.0.0.UPF: wavefunction(s)  2S 2P renormalized
     Found identity + ( -0.5000  0.5000 -0.5000) symmetry
     This is a supercell, fractional translations are disabled
     Message from routine setup:
     using ibrav=0 with symmetry is DISCOURAGED, use correct ibrav instead

     K-points division:     npool     =     128
     Subspace diagonalization in iterative solution of the eigenvalue problem:
     a serial algorithm will be used

     Message from routine divide_et_impera:
     suboptimal parallelization: some nodes have no k-points

     G-vector sticks info
     --------------------
     sticks:   dense  smooth     PW     G-vecs:    dense   smooth      PW
     Sum        3577    1789    497               228191    80831   11835

     Using Slab Decomposition



     bravais-lattice index     =            0
     lattice parameter (alat)  =      10.6088  a.u.
     unit-cell volume          =    1688.5722 (a.u.)^3
     number of atoms/cell      =           20
     number of atomic types    =            3
     number of electrons       =       168.00
     number of Kohn-Sham states=          101
     kinetic-energy cutoff     =      50.0000  Ry
     charge density cutoff     =     400.0000  Ry
     scf convergence threshold =      1.0E-09
     mixing beta               =       0.4000
     number of iterations used =            8  plain     mixing
     Exchange-correlation= SLA  PZ   NOGX NOGC
                           (   1   1   0   0   0   0   0)

     celldm(1)=  10.608847  celldm(2)=   0.000000  celldm(3)=   0.000000
     celldm(4)=   0.000000  celldm(5)=   0.000000  celldm(6)=   0.000000

     crystal axes: (cart. coord. in units of alat)
               a(1) = (   1.000000   0.000000   0.000000 )  
               a(2) = (   0.000000   1.000000   0.000000 )  
               a(3) = (   0.000000   0.000000   1.414214 )  

     reciprocal axes: (cart. coord. in units 2 pi/alat)
               b(1) = (  1.000000  0.000000  0.000000 )  
               b(2) = (  0.000000  1.000000  0.000000 )  
               b(3) = (  0.000000  0.000000  0.707107 )  


     PseudoPot. # 1 for Sr read from file:
     ../../../pseudo/Sr.pz-spn-kjpaw_psl.1.0.0.UPF
     MD5 check sum: 14b1f655f5497b386c4f305353cf4fd4
     Pseudo is Projector augmented-wave + core cor, Zval = 10.0
     Generated using 'atomic' code by A. Dal Corso  v.7.3
     Shape of augmentation charge: PSQ
     Using radial grid of 1221 points,  6 beta functions with: 
                l(1) =   0
                l(2) =   0
                l(3) =   1
                l(4) =   1
                l(5) =   2
                l(6) =   2
     Q(r) pseudized with 0 coefficients 


     PseudoPot. # 2 for Mo read from file:
     ../../../pseudo/Mo.pz-spn-kjpaw_psl.1.0.0.UPF
     MD5 check sum: 2e12aff744a4785a34e7548d4bec1d21
     Pseudo is Projector augmented-wave + core cor, Zval = 14.0
     Generated using 'atomic' code by A. Dal Corso  v.7.3
     Shape of augmentation charge: PSQ
     Using radial grid of 1229 points,  6 beta functions with: 
                l(1) =   0
                l(2) =   0
                l(3) =   1
                l(4) =   1
                l(5) =   2
                l(6) =   2
     Q(r) pseudized with 0 coefficients 


     PseudoPot. # 3 for O  read from file:
     ../../../pseudo/O.pz-n-kjpaw_psl.1.0.0.UPF
     MD5 check sum: 71a951e35f67dc87891058fc5642ed8f
     Pseudo is Projector augmented-wave + core cor, Zval =  6.0
     Generated using 'atomic' code by A. Dal Corso  v.7.3
     Shape of augmentation charge: PSQ
     Using radial grid of 1095 points,  4 beta functions with: 
                l(1) =   0
                l(2) =   0
                l(3) =   1
                l(4) =   1
     Q(r) pseudized with 0 coefficients 


     atomic species   valence    mass     pseudopotential
     Sr               10.00    87.62000     Sr( 1.00)
     Mo               14.00    95.95000     Mo( 1.00)
     O                 6.00    15.99900     O ( 1.00)

      4 Sym. Ops., with inversion, found


                                    s                        frac. trans.

      isym =  1     identity                                     

 cryst.   s( 1) = (     1          0          0      )
                  (     0          1          0      )
                  (     0          0          1      )

 cart.    s( 1) = (  1.0000000  0.0000000  0.0000000 )
                  (  0.0000000  1.0000000  0.0000000 )
                  (  0.0000000  0.0000000  1.0000000 )


      isym =  2     180 deg rotation - cart. axis [1,0,0]        

 cryst.   s( 2) = (     1          0          0      )
                  (     0         -1          0      )
                  (     0          0         -1      )

 cart.    s( 2) = (  1.0000000  0.0000000  0.0000000 )
                  (  0.0000000 -1.0000000  0.0000000 )
                  (  0.0000000  0.0000000 -1.0000000 )


      isym =  3     inversion                                    

 cryst.   s( 3) = (    -1          0          0      )
                  (     0         -1          0      )
                  (     0          0         -1      )

 cart.    s( 3) = ( -1.0000000  0.0000000  0.0000000 )
                  (  0.0000000 -1.0000000  0.0000000 )
                  (  0.0000000  0.0000000 -1.0000000 )


      isym =  4     inv. 180 deg rotation - cart. axis [1,0,0]   

 cryst.   s( 4) = (    -1          0          0      )
                  (     0          1          0      )
                  (     0          0          1      )

 cart.    s( 4) = ( -1.0000000  0.0000000  0.0000000 )
                  (  0.0000000  1.0000000  0.0000000 )
                  (  0.0000000  0.0000000  1.0000000 )


   Cartesian axes

     site n.     atom                  positions (alat units)
         1        Sr     tau(   1) = (   0.0000000   0.5000000   0.3535535  )
         2        Sr     tau(   2) = (   0.0000000   0.5000000   1.0606604  )
         3        Sr     tau(   3) = (   0.5000000   0.0000000   1.0606604  )
         4        Sr     tau(   4) = (   0.5000000   0.0000000   0.3535535  )
         5        Mo     tau(   5) = (   0.0000000   0.0000000   0.0000000  )
         6        Mo     tau(   6) = (   0.0000000   0.0000000   0.7071069  )
         7        Mo     tau(   7) = (   0.5000000   0.5000000   0.7071069  )
         8        Mo     tau(   8) = (   0.5000000   0.5000000   0.0000000  )
         9        O      tau(   9) = (   0.2500000   0.7500000  -0.0251900  )
        10        O      tau(  10) = (   0.2500000   0.2500000   0.0251900  )
        11        O      tau(  11) = (   0.7500000   0.2500000   0.6819169  )
        12        O      tau(  12) = (   0.7500000   0.7500000   0.7322969  )
        13        O      tau(  13) = (   0.7500000   0.2500000   0.0251900  )
        14        O      tau(  14) = (   0.7500000   0.7500000  -0.0251900  )
        15        O      tau(  15) = (   0.2500000   0.7500000   0.7322969  )
        16        O      tau(  16) = (   0.2500000   0.2500000   0.6819169  )
        17        O      tau(  17) = (   0.0000000  -0.0356240   0.3535535  )
        18        O      tau(  18) = (   0.0000000   0.0356240   1.0606604  )
        19        O      tau(  19) = (   0.5000000   0.4643760   1.0606604  )
        20        O      tau(  20) = (   0.5000000   0.5356240   0.3535535  )

   Crystallographic axes

     site n.     atom                  positions (cryst. coord.)
         1        Sr     tau(   1) = (  0.0000000  0.5000000  0.2500000  )
         2        Sr     tau(   2) = (  0.0000000  0.5000000  0.7500000  )
         3        Sr     tau(   3) = (  0.5000000  0.0000000  0.7500000  )
         4        Sr     tau(   4) = (  0.5000000  0.0000000  0.2500000  )
         5        Mo     tau(   5) = (  0.0000000  0.0000000  0.0000000  )
         6        Mo     tau(   6) = (  0.0000000  0.0000000  0.5000000  )
         7        Mo     tau(   7) = (  0.5000000  0.5000000  0.5000000  )
         8        Mo     tau(   8) = (  0.5000000  0.5000000  0.0000000  )
         9        O      tau(   9) = (  0.2500000  0.7500000 -0.0178120  )
        10        O      tau(  10) = (  0.2500000  0.2500000  0.0178120  )
        11        O      tau(  11) = (  0.7500000  0.2500000  0.4821880  )
        12        O      tau(  12) = (  0.7500000  0.7500000  0.5178120  )
        13        O      tau(  13) = (  0.7500000  0.2500000  0.0178120  )
        14        O      tau(  14) = (  0.7500000  0.7500000 -0.0178120  )
        15        O      tau(  15) = (  0.2500000  0.7500000  0.5178120  )
        16        O      tau(  16) = (  0.2500000  0.2500000  0.4821880  )
        17        O      tau(  17) = (  0.0000000 -0.0356240  0.2500000  )
        18        O      tau(  18) = (  0.0000000  0.0356240  0.7500000  )
        19        O      tau(  19) = (  0.5000000  0.4643760  0.7500000  )
        20        O      tau(  20) = (  0.5000000  0.5356240  0.2500000  )

     number of k points=    39  Fermi-Dirac smearing, width (Ry)=  0.0015
                       cart. coord. in units 2pi/alat
        k(    1) = (   0.0000000   0.0000000   0.0000000), wk =   0.0160000
        k(    2) = (   0.0000000   0.0000000   0.1414213), wk =   0.0320000
        k(    3) = (   0.0000000   0.0000000   0.2828427), wk =   0.0320000
        k(    4) = (   0.0000000   0.2000000   0.0000000), wk =   0.0320000
        k(    5) = (   0.0000000   0.2000000   0.1414213), wk =   0.0320000
        k(    6) = (   0.0000000   0.2000000   0.2828427), wk =   0.0320000
        k(    7) = (   0.0000000   0.4000000   0.0000000), wk =   0.0320000
        k(    8) = (   0.0000000   0.4000000   0.1414213), wk =   0.0320000
        k(    9) = (   0.0000000   0.4000000   0.2828427), wk =   0.0320000
        k(   10) = (   0.2000000   0.2000000   0.0000000), wk =   0.0640000
        k(   11) = (   0.2000000   0.2000000   0.1414213), wk =   0.0640000
        k(   12) = (   0.2000000   0.2000000   0.2828427), wk =   0.0640000
        k(   13) = (   0.2000000   0.4000000   0.0000000), wk =   0.0640000
        k(   14) = (   0.2000000   0.4000000   0.1414213), wk =   0.0640000
        k(   15) = (   0.2000000   0.4000000   0.2828427), wk =   0.0640000
        k(   16) = (   0.4000000   0.4000000   0.0000000), wk =   0.0640000
        k(   17) = (   0.4000000   0.4000000   0.1414213), wk =   0.0640000
        k(   18) = (   0.4000000   0.4000000   0.2828427), wk =   0.0640000
        k(   19) = (   0.2000000   0.0000000   0.0000000), wk =   0.0320000
        k(   20) = (   0.2000000   0.0000000  -0.1414213), wk =   0.0640000
        k(   21) = (   0.0000000   0.2000000  -0.1414213), wk =   0.0320000
        k(   22) = (   0.2000000   0.0000000  -0.2828427), wk =   0.0640000
        k(   23) = (   0.0000000   0.2000000  -0.2828427), wk =   0.0320000
        k(   24) = (   0.4000000   0.0000000   0.0000000), wk =   0.0320000
        k(   25) = (   0.4000000   0.0000000  -0.1414213), wk =   0.0640000
        k(   26) = (   0.0000000   0.4000000  -0.1414213), wk =   0.0320000
        k(   27) = (   0.4000000   0.0000000  -0.2828427), wk =   0.0640000
        k(   28) = (   0.0000000   0.4000000  -0.2828427), wk =   0.0320000
        k(   29) = (   0.2000000   0.2000000  -0.1414213), wk =   0.0640000
        k(   30) = (   0.2000000   0.2000000  -0.2828427), wk =   0.0640000
        k(   31) = (   0.4000000   0.2000000   0.0000000), wk =   0.0640000
        k(   32) = (   0.4000000   0.2000000  -0.1414213), wk =   0.0640000
        k(   33) = (  -0.4000000  -0.2000000  -0.1414213), wk =   0.0640000
        k(   34) = (  -0.2000000   0.4000000  -0.1414213), wk =   0.0640000
        k(   35) = (   0.4000000   0.2000000  -0.2828427), wk =   0.0640000
        k(   36) = (  -0.4000000  -0.2000000  -0.2828427), wk =   0.0640000
        k(   37) = (  -0.2000000   0.4000000  -0.2828427), wk =   0.0640000
        k(   38) = (   0.4000000   0.4000000  -0.1414213), wk =   0.0640000
        k(   39) = (   0.4000000   0.4000000  -0.2828427), wk =   0.0640000

                       cryst. coord.
        k(    1) = (   0.0000000   0.0000000   0.0000000), wk =   0.0160000
        k(    2) = (   0.0000000   0.0000000   0.2000000), wk =   0.0320000
        k(    3) = (   0.0000000   0.0000000   0.4000000), wk =   0.0320000
        k(    4) = (   0.0000000   0.2000000   0.0000000), wk =   0.0320000
        k(    5) = (   0.0000000   0.2000000   0.2000000), wk =   0.0320000
        k(    6) = (   0.0000000   0.2000000   0.4000000), wk =   0.0320000
        k(    7) = (   0.0000000   0.4000000   0.0000000), wk =   0.0320000
        k(    8) = (   0.0000000   0.4000000   0.2000000), wk =   0.0320000
        k(    9) = (   0.0000000   0.4000000   0.4000000), wk =   0.0320000
        k(   10) = (   0.2000000   0.2000000   0.0000000), wk =   0.0640000
        k(   11) = (   0.2000000   0.2000000   0.2000000), wk =   0.0640000
        k(   12) = (   0.2000000   0.2000000   0.4000000), wk =   0.0640000
        k(   13) = (   0.2000000   0.4000000   0.0000000), wk =   0.0640000
        k(   14) = (   0.2000000   0.4000000   0.2000000), wk =   0.0640000
        k(   15) = (   0.2000000   0.4000000   0.4000000), wk =   0.0640000
        k(   16) = (   0.4000000   0.4000000   0.0000000), wk =   0.0640000
        k(   17) = (   0.4000000   0.4000000   0.2000000), wk =   0.0640000
        k(   18) = (   0.4000000   0.4000000   0.4000000), wk =   0.0640000
        k(   19) = (   0.2000000   0.0000000   0.0000000), wk =   0.0320000
        k(   20) = (   0.2000000   0.0000000  -0.2000000), wk =   0.0640000
        k(   21) = (   0.0000000   0.2000000  -0.2000000), wk =   0.0320000
        k(   22) = (   0.2000000   0.0000000  -0.4000000), wk =   0.0640000
        k(   23) = (   0.0000000   0.2000000  -0.4000000), wk =   0.0320000
        k(   24) = (   0.4000000   0.0000000   0.0000000), wk =   0.0320000
        k(   25) = (   0.4000000   0.0000000  -0.2000000), wk =   0.0640000
        k(   26) = (   0.0000000   0.4000000  -0.2000000), wk =   0.0320000
        k(   27) = (   0.4000000   0.0000000  -0.4000000), wk =   0.0640000
        k(   28) = (   0.0000000   0.4000000  -0.4000000), wk =   0.0320000
        k(   29) = (   0.2000000   0.2000000  -0.2000000), wk =   0.0640000
        k(   30) = (   0.2000000   0.2000000  -0.4000000), wk =   0.0640000
        k(   31) = (   0.4000000   0.2000000   0.0000000), wk =   0.0640000
        k(   32) = (   0.4000000   0.2000000  -0.2000000), wk =   0.0640000
        k(   33) = (  -0.4000000  -0.2000000  -0.2000000), wk =   0.0640000
        k(   34) = (  -0.2000000   0.4000000  -0.2000000), wk =   0.0640000
        k(   35) = (   0.4000000   0.2000000  -0.4000000), wk =   0.0640000
        k(   36) = (  -0.4000000  -0.2000000  -0.4000000), wk =   0.0640000
        k(   37) = (  -0.2000000   0.4000000  -0.4000000), wk =   0.0640000
        k(   38) = (   0.4000000   0.4000000  -0.2000000), wk =   0.0640000
        k(   39) = (   0.4000000   0.4000000  -0.4000000), wk =   0.0640000

     Dense  grid:   228191 G-vectors     FFT dimensions: (  72,  72,  96)

     Smooth grid:    80831 G-vectors     FFT dimensions: (  48,  48,  72)

     Dynamical RAM for                 wfc:      15.54 MB

     Dynamical RAM for     wfc (w. buffer):      15.54 MB

     Dynamical RAM for           str. fact:      10.45 MB

     Dynamical RAM for           local pot:       0.00 MB

     Dynamical RAM for          nlocal pot:      36.92 MB

     Dynamical RAM for                qrad:       4.82 MB

     Dynamical RAM for          rho,v,vnew:      21.84 MB

     Dynamical RAM for               rhoin:       7.28 MB

     Dynamical RAM for            rho*nmix:      55.71 MB

     Dynamical RAM for           G-vectors:      13.67 MB

     Dynamical RAM for          h,s,v(r/c):       1.87 MB

     Dynamical RAM for          <psi|beta>:       0.37 MB

     Dynamical RAM for                 psi:      31.07 MB

     Dynamical RAM for                hpsi:      31.07 MB

     Dynamical RAM for                spsi:      31.07 MB

     Dynamical RAM for      wfcinit/wfcrot:      31.31 MB

     Dynamical RAM for           addusdens:       8.84 MB

     Estimated static dynamical RAM per process >     143.42 MB

     Estimated max dynamical RAM per process >     294.58 MB

     Estimated total dynamical RAM >      29.91 GB

     Check: negative core charge=   -0.000002

     Initial potential from superposition of free atoms

     starting charge     167.9716, renormalised to     168.0000
     Starting wfcs are  120 randomized atomic wfcs
     Checking if some PAW data can be deallocated... 
       PAW data deallocated on  100 nodes for type:  1
       PAW data deallocated on  100 nodes for type:  2
       PAW data deallocated on   56 nodes for type:  3

     total cpu time spent up to now is        3.8 secs

     per-process dynamical memory:   215.5 Mb

     Self-consistent Calculation

     iteration #  1     ecut=    50.00 Ry     beta= 0.40
     Davidson diagonalization with overlap

---- Real-time Memory Report at c_bands before calling an iterative solver
           262 MiB given to the printing process from OS
           217 MiB allocation reported by mallinfo(arena+hblkhd)
        938957 MiB available memory on the node where the printing process lives
------------------
     ethr =  1.00E-02,  avg # of iterations =  2.3

     total cpu time spent up to now is        6.5 secs

     total energy              =   -2921.39696910 Ry
     estimated scf accuracy    <       5.77454482 Ry

     iteration #  2     ecut=    50.00 Ry     beta= 0.40
     Davidson diagonalization with overlap

---- Real-time Memory Report at c_bands before calling an iterative solver
           330 MiB given to the printing process from OS
           250 MiB allocation reported by mallinfo(arena+hblkhd)
        937436 MiB available memory on the node where the printing process lives
------------------
     ethr =  3.44E-03,  avg # of iterations =  4.0

     total cpu time spent up to now is        9.5 secs

     total energy              =   -2923.41692504 Ry
     estimated scf accuracy    <       1.64661619 Ry

     iteration #  3     ecut=    50.00 Ry     beta= 0.40
     Davidson diagonalization with overlap

---- Real-time Memory Report at c_bands before calling an iterative solver
           353 MiB given to the printing process from OS
           273 MiB allocation reported by mallinfo(arena+hblkhd)
        934769 MiB available memory on the node where the printing process lives
------------------
     ethr =  9.80E-04,  avg # of iterations =  4.5

     total cpu time spent up to now is       13.0 secs

     total energy              =   -2923.69711401 Ry
     estimated scf accuracy    <       0.62992303 Ry

     iteration #  4     ecut=    50.00 Ry     beta= 0.40
     Davidson diagonalization with overlap

---- Real-time Memory Report at c_bands before calling an iterative solver
           358 MiB given to the printing process from OS
           278 MiB allocation reported by mallinfo(arena+hblkhd)
        935022 MiB available memory on the node where the printing process lives
------------------
     ethr =  3.75E-04,  avg # of iterations = 13.9

     total cpu time spent up to now is       18.1 secs

     total energy              =   -2923.75713041 Ry
     estimated scf accuracy    <       1.36628780 Ry

     iteration #  5     ecut=    50.00 Ry     beta= 0.40
     Davidson diagonalization with overlap

---- Real-time Memory Report at c_bands before calling an iterative solver
           360 MiB given to the printing process from OS
           281 MiB allocation reported by mallinfo(arena+hblkhd)
        935348 MiB available memory on the node where the printing process lives
------------------
     ethr =  3.75E-04,  avg # of iterations =  2.1

     total cpu time spent up to now is       21.1 secs

     total energy              =   -2923.81080528 Ry
     estimated scf accuracy    <       0.07105895 Ry

     iteration #  6     ecut=    50.00 Ry     beta= 0.40
     Davidson diagonalization with overlap

---- Real-time Memory Report at c_bands before calling an iterative solver
           363 MiB given to the printing process from OS
           283 MiB allocation reported by mallinfo(arena+hblkhd)
        935540 MiB available memory on the node where the printing process lives
------------------
     ethr =  4.23E-05,  avg # of iterations = 13.6

     total cpu time spent up to now is       25.4 secs

     total energy              =   -2923.81171562 Ry
     estimated scf accuracy    <       0.23643844 Ry

     iteration #  7     ecut=    50.00 Ry     beta= 0.40
     Davidson diagonalization with overlap

---- Real-time Memory Report at c_bands before calling an iterative solver
           365 MiB given to the printing process from OS
           286 MiB allocation reported by mallinfo(arena+hblkhd)
        935821 MiB available memory on the node where the printing process lives
------------------
     ethr =  4.23E-05,  avg # of iterations =  2.4

     total cpu time spent up to now is       28.1 secs

     total energy              =   -2923.82205061 Ry
     estimated scf accuracy    <       0.08693694 Ry

     iteration #  8     ecut=    50.00 Ry     beta= 0.40
     Davidson diagonalization with overlap

---- Real-time Memory Report at c_bands before calling an iterative solver
           368 MiB given to the printing process from OS
           288 MiB allocation reported by mallinfo(arena+hblkhd)
        936001 MiB available memory on the node where the printing process lives
------------------
     ethr =  4.23E-05,  avg # of iterations =  1.0

     total cpu time spent up to now is       30.4 secs

     total energy              =   -2923.82391198 Ry
     estimated scf accuracy    <       0.03947382 Ry

     iteration #  9     ecut=    50.00 Ry     beta= 0.40
     Davidson diagonalization with overlap

---- Real-time Memory Report at c_bands before calling an iterative solver
           370 MiB given to the printing process from OS
           291 MiB allocation reported by mallinfo(arena+hblkhd)
        936126 MiB available memory on the node where the printing process lives
------------------
     ethr =  2.35E-05,  avg # of iterations =  1.8

     total cpu time spent up to now is       32.9 secs

     total energy              =   -2923.82537072 Ry
     estimated scf accuracy    <       0.00938650 Ry

     iteration # 10     ecut=    50.00 Ry     beta= 0.40
     Davidson diagonalization with overlap

---- Real-time Memory Report at c_bands before calling an iterative solver
           373 MiB given to the printing process from OS
           293 MiB allocation reported by mallinfo(arena+hblkhd)
        936345 MiB available memory on the node where the printing process lives
------------------
     ethr =  5.59E-06,  avg # of iterations = 10.4

     total cpu time spent up to now is       36.6 secs

     total energy              =   -2923.82472279 Ry
     estimated scf accuracy    <       0.00161164 Ry

     iteration # 11     ecut=    50.00 Ry     beta= 0.40
     Davidson diagonalization with overlap

---- Real-time Memory Report at c_bands before calling an iterative solver
           378 MiB given to the printing process from OS
           296 MiB allocation reported by mallinfo(arena+hblkhd)
        936576 MiB available memory on the node where the printing process lives
------------------
     ethr =  9.59E-07,  avg # of iterations = 12.5

     total cpu time spent up to now is       41.7 secs

     total energy              =   -2923.82533201 Ry
     estimated scf accuracy    <       0.00100843 Ry

     iteration # 12     ecut=    50.00 Ry     beta= 0.40
     Davidson diagonalization with overlap

---- Real-time Memory Report at c_bands before calling an iterative solver
           378 MiB given to the printing process from OS
           296 MiB allocation reported by mallinfo(arena+hblkhd)
        936889 MiB available memory on the node where the printing process lives
------------------
     ethr =  6.00E-07,  avg # of iterations =  3.4

     total cpu time spent up to now is       45.2 secs

     total energy              =   -2923.82541097 Ry
     estimated scf accuracy    <       0.00016634 Ry

     iteration # 13     ecut=    50.00 Ry     beta= 0.40
     Davidson diagonalization with overlap

---- Real-time Memory Report at c_bands before calling an iterative solver
           378 MiB given to the printing process from OS
           296 MiB allocation reported by mallinfo(arena+hblkhd)
        937097 MiB available memory on the node where the printing process lives
------------------
     ethr =  9.90E-08,  avg # of iterations =  5.5

     total cpu time spent up to now is       49.1 secs

     total energy              =   -2923.82549231 Ry
     estimated scf accuracy    <       0.00003733 Ry

     iteration # 14     ecut=    50.00 Ry     beta= 0.40
     Davidson diagonalization with overlap

---- Real-time Memory Report at c_bands before calling an iterative solver
           378 MiB given to the printing process from OS
           296 MiB allocation reported by mallinfo(arena+hblkhd)
        937340 MiB available memory on the node where the printing process lives
------------------
     ethr =  2.22E-08,  avg # of iterations =  2.5

     total cpu time spent up to now is       51.9 secs

     total energy              =   -2923.82549143 Ry
     estimated scf accuracy    <       0.00001258 Ry

     iteration # 15     ecut=    50.00 Ry     beta= 0.40
     Davidson diagonalization with overlap

---- Real-time Memory Report at c_bands before calling an iterative solver
           378 MiB given to the printing process from OS
           296 MiB allocation reported by mallinfo(arena+hblkhd)
        937485 MiB available memory on the node where the printing process lives
------------------
     ethr =  7.49E-09,  avg # of iterations =  4.4

     total cpu time spent up to now is       54.9 secs

     total energy              =   -2923.82549542 Ry
     estimated scf accuracy    <       0.00000124 Ry

     iteration # 16     ecut=    50.00 Ry     beta= 0.40
     Davidson diagonalization with overlap

---- Real-time Memory Report at c_bands before calling an iterative solver
           378 MiB given to the printing process from OS
           296 MiB allocation reported by mallinfo(arena+hblkhd)
        937667 MiB available memory on the node where the printing process lives
------------------
     ethr =  7.37E-10,  avg # of iterations =  6.1

     total cpu time spent up to now is       58.6 secs

     total energy              =   -2923.82549569 Ry
     estimated scf accuracy    <       0.00000037 Ry

     iteration # 17     ecut=    50.00 Ry     beta= 0.40
     Davidson diagonalization with overlap

---- Real-time Memory Report at c_bands before calling an iterative solver
           378 MiB given to the printing process from OS
           296 MiB allocation reported by mallinfo(arena+hblkhd)
        937873 MiB available memory on the node where the printing process lives
------------------
     ethr =  2.19E-10,  avg # of iterations =  2.9

     total cpu time spent up to now is       61.6 secs

     total energy              =   -2923.82549572 Ry
     estimated scf accuracy    <       0.00000017 Ry

     iteration # 18     ecut=    50.00 Ry     beta= 0.40
     Davidson diagonalization with overlap

---- Real-time Memory Report at c_bands before calling an iterative solver
           378 MiB given to the printing process from OS
           296 MiB allocation reported by mallinfo(arena+hblkhd)
        938015 MiB available memory on the node where the printing process lives
------------------
     ethr =  1.04E-10,  avg # of iterations =  2.0

     total cpu time spent up to now is       64.3 secs

     total energy              =   -2923.82549572 Ry
     estimated scf accuracy    <       0.00000007 Ry

     iteration # 19     ecut=    50.00 Ry     beta= 0.40
     Davidson diagonalization with overlap

---- Real-time Memory Report at c_bands before calling an iterative solver
           379 MiB given to the printing process from OS
           296 MiB allocation reported by mallinfo(arena+hblkhd)
        938167 MiB available memory on the node where the printing process lives
------------------
     ethr =  4.26E-11,  avg # of iterations =  4.9

     total cpu time spent up to now is       67.8 secs

     total energy              =   -2923.82549574 Ry
     estimated scf accuracy    <       0.00000008 Ry

     iteration # 20     ecut=    50.00 Ry     beta= 0.40
     Davidson diagonalization with overlap

---- Real-time Memory Report at c_bands before calling an iterative solver
           379 MiB given to the printing process from OS
           296 MiB allocation reported by mallinfo(arena+hblkhd)
        938362 MiB available memory on the node where the printing process lives
------------------
     ethr =  4.26E-11,  avg # of iterations =  1.3

     total cpu time spent up to now is       70.2 secs

     total energy              =   -2923.82549574 Ry
     estimated scf accuracy    <          9.3E-09 Ry

     iteration # 21     ecut=    50.00 Ry     beta= 0.40
     Davidson diagonalization with overlap

---- Real-time Memory Report at c_bands before calling an iterative solver
           379 MiB given to the printing process from OS
           296 MiB allocation reported by mallinfo(arena+hblkhd)
        938462 MiB available memory on the node where the printing process lives
------------------
     ethr =  5.55E-12,  avg # of iterations =  4.1

     total cpu time spent up to now is       73.3 secs

     total energy              =   -2923.82549574 Ry
     estimated scf accuracy    <          1.4E-09 Ry

     iteration # 22     ecut=    50.00 Ry     beta= 0.40
     Davidson diagonalization with overlap

---- Real-time Memory Report at c_bands before calling an iterative solver
           379 MiB given to the printing process from OS
           296 MiB allocation reported by mallinfo(arena+hblkhd)
        938585 MiB available memory on the node where the printing process lives
------------------
     ethr =  8.45E-13,  avg # of iterations =  5.2

     total cpu time spent up to now is       76.9 secs

     End of self-consistent calculation

          k = 0.0000 0.0000 0.0000 ( 10085 PWs)   bands (ev):

   -48.9754 -48.9746 -48.9726 -48.9715 -23.2973 -23.2842 -23.2804 -23.2797
   -23.2749 -23.2710 -23.2079 -23.2071 -23.2054 -23.2000 -23.1980 -23.1949
   -22.0585 -22.0268 -22.0218 -22.0061  -6.9841  -6.7379  -6.2749  -6.1315
    -6.0928  -6.0243  -5.8461  -5.7873  -5.3654  -5.3552  -5.3399  -5.3094
    -4.3517  -4.3087  -4.2419  -4.0888  -4.0519  -4.0425  -4.0351  -4.0251
    -4.0084  -3.6948  -3.6370  -3.5906   5.1611   5.1825   5.2020   5.2918
     5.3466   5.4212   5.6103   6.2566   6.2633   6.2646   7.1910   7.1964
     7.6614   7.6667   7.7003   7.7290   7.7731   7.7766   7.7923   7.8410
     8.2056   8.7051   8.7352   8.8096   9.0534   9.0979   9.1193   9.4287
     9.4493   9.7160   9.7228   9.7411  10.0544  10.0972  10.1444  10.1466
    11.6645  11.6937  11.7176  11.8375  14.1132  14.2111  14.2878  14.3308
    14.9230  15.1278  15.1302  15.3646  15.5228  15.6320  15.7215  15.8003
    15.9459  15.9669  16.5576  17.0676  17.1459

     occupation numbers 
     1.0000   1.0000   1.0000   1.0000   1.0000   1.0000   1.0000   1.0000
     1.0000   1.0000   1.0000   1.0000   1.0000   1.0000   1.0000   1.0000
     1.0000   1.0000   1.0000   1.0000   1.0000   1.0000   1.0000   1.0000
     1.0000   1.0000   1.0000   1.0000   1.0000   1.0000   1.0000   1.0000
     1.0000   1.0000   1.0000   1.0000   1.0000   1.0000   1.0000   1.0000
     1.0000   1.0000   1.0000   1.0000   1.0000   1.0000   1.0000   1.0000
     1.0000   1.0000   1.0000   1.0000   1.0000   1.0000   1.0000   1.0000
     1.0000   1.0000   1.0000   1.0000   1.0000   1.0000   1.0000   1.0000
     1.0000   1.0000   1.0000   1.0000   1.0000   1.0000   1.0000   1.0000
     1.0000   1.0000   1.0000   1.0000   1.0000   1.0000   1.0000   1.0000
     1.0000   1.0000   1.0000   1.0000   0.0000   0.0000   0.0000   0.0000
     0.0000   0.0000   0.0000   0.0000   0.0000   0.0000   0.0000   0.0000
     0.0000   0.0000   0.0000   0.0000   0.0000

          k = 0.0000 0.0000 0.1414 ( 10050 PWs)   bands (ev):

   -48.9754 -48.9743 -48.9727 -48.9713 -23.2890 -23.2837 -23.2806 -23.2746
   -23.2722 -23.2713 -23.2167 -23.2099 -23.2068 -23.2033 -23.1977 -23.1950
   -22.0553 -22.0297 -22.0203 -22.0076  -6.9528  -6.7401  -6.1955  -6.1027
    -6.0880  -6.0344  -5.8293  -5.7497  -5.4526  -5.4203  -5.4181  -5.3736
    -4.3205  -4.2300  -4.1674  -4.0853  -4.0554  -4.0432  -4.0363  -4.0271
    -3.9935  -3.7422  -3.6850  -3.6288   5.1632   5.1804   5.3091   5.3528
     5.5003   5.5349   5.7628   6.1761   6.3204   6.3215   7.0363   7.0463
     7.5670   7.6140   7.6409   7.7591   7.7726   7.8472   7.8641   7.9406
     8.2986   8.3158   8.8890   8.9312   8.9367   8.9855   9.0007   9.3686
     9.4371   9.4637   9.6391   9.6671   9.9799  10.0119  10.1496  10.1659
    11.7052  11.8218  11.9841  12.0281  13.9347  14.0620  14.2765  14.3980
    15.0167  15.0202  15.1468  15.3418  15.5239  15.5879  15.8994  15.9263
    16.0993  16.1901  16.9088  17.1919  17.3532

     occupation numbers 
     1.0000   1.0000   1.0000   1.0000   1.0000   1.0000   1.0000   1.0000
     1.0000   1.0000   1.0000   1.0000   1.0000   1.0000   1.0000   1.0000
     1.0000   1.0000   1.0000   1.0000   1.0000   1.0000   1.0000   1.0000
     1.0000   1.0000   1.0000   1.0000   1.0000   1.0000   1.0000   1.0000
     1.0000   1.0000   1.0000   1.0000   1.0000   1.0000   1.0000   1.0000
     1.0000   1.0000   1.0000   1.0000   1.0000   1.0000   1.0000   1.0000
     1.0000   1.0000   1.0000   1.0000   1.0000   1.0000   1.0000   1.0000
     1.0000   1.0000   1.0000   1.0000   1.0000   1.0000   1.0000   1.0000
     1.0000   1.0000   1.0000   1.0000   1.0000   1.0000   1.0000   1.0000
     1.0000   1.0000   1.0000   1.0000   1.0000   1.0000   1.0000   1.0000
     1.0000   1.0000   1.0000   1.0000   0.0000   0.0000   0.0000   0.0000
     0.0000   0.0000   0.0000   0.0000   0.0000   0.0000   0.0000   0.0000
     0.0000   0.0000   0.0000   0.0000   0.0000

          k = 0.0000 0.0000 0.2828 ( 10046 PWs)   bands (ev):

   -48.9752 -48.9746 -48.9723 -48.9716 -23.2831 -23.2817 -23.2736 -23.2723
   -23.2667 -23.2527 -23.2393 -23.2289 -23.2060 -23.2047 -23.1969 -23.1958
   -22.0473 -22.0375 -22.0164 -22.0115  -6.8721  -6.7831  -6.0744  -6.0549
    -5.9825  -5.9802  -5.8340  -5.6972  -5.6500  -5.5571  -5.5232  -5.5117
    -4.2375  -4.1317  -4.0761  -4.0647  -4.0550  -4.0362  -4.0322  -3.9972
    -3.8732  -3.8721  -3.8166  -3.7335   5.1685   5.1751   5.3663   5.3707
     5.7082   5.9662   6.1717   6.4055   6.4833   6.4871   6.7452   6.7623
     6.9793   7.3359   7.6658   7.6992   7.7162   7.7221   8.1305   8.1480
     8.2371   8.5072   8.5116   8.5379   8.7343   8.7676   9.3352   9.3720
     9.4738   9.5063   9.5404   9.5744   9.7245   9.7560  10.1621  10.1724
    11.7377  11.7824  12.6764  12.7193  13.4060  13.4739  14.4652  14.5903
    14.7434  14.8592  15.2041  15.2806  15.5290  15.5451  16.3014  16.4719
    16.5116  16.8409  17.0085  17.0414  17.1881

     occupation numbers 
     1.0000   1.0000   1.0000   1.0000   1.0000   1.0000   1.0000   1.0000
     1.0000   1.0000   1.0000   1.0000   1.0000   1.0000   1.0000   1.0000
     1.0000   1.0000   1.0000   1.0000   1.0000   1.0000   1.0000   1.0000
     1.0000   1.0000   1.0000   1.0000   1.0000   1.0000   1.0000   1.0000
     1.0000   1.0000   1.0000   1.0000   1.0000   1.0000   1.0000   1.0000
     1.0000   1.0000   1.0000   1.0000   1.0000   1.0000   1.0000   1.0000
     1.0000   1.0000   1.0000   1.0000   1.0000   1.0000   1.0000   1.0000
     1.0000   1.0000   1.0000   1.0000   1.0000   1.0000   1.0000   1.0000
     1.0000   1.0000   1.0000   1.0000   1.0000   1.0000   1.0000   1.0000
     1.0000   1.0000   1.0000   1.0000   1.0000   1.0000   1.0000   1.0000
     1.0000   1.0000   1.0000   1.0000   0.9994   0.9837   0.0000   0.0000
     0.0000   0.0000   0.0000   0.0000   0.0000   0.0000   0.0000   0.0000
     0.0000   0.0000   0.0000   0.0000   0.0000

          k = 0.0000 0.2000 0.0000 ( 10076 PWs)   bands (ev):

   -48.9752 -48.9738 -48.9733 -48.9716 -23.2947 -23.2805 -23.2788 -23.2733
   -23.2678 -23.2637 -23.2165 -23.2119 -23.2073 -23.2055 -23.2020 -23.2016
   -22.0524 -22.0258 -22.0229 -22.0091  -6.8638  -6.7326  -6.4244  -6.0982
    -6.0603  -5.9631  -5.8124  -5.7571  -5.5919  -5.4499  -5.4448  -5.3859
    -4.2917  -4.2438  -4.0932  -4.0832  -4.0552  -4.0212  -4.0179  -3.9476
    -3.9136  -3.7397  -3.6584  -3.6316   5.2641   5.2917   5.4185   5.4395
     5.5582   5.6882   5.8074   6.1728   6.3140   6.3809   6.8874   7.2494
     7.2578   7.3064   7.4581   7.4773   7.6303   7.6375   7.7333   8.5274
     8.5472   8.5926   8.6708   8.7492   8.7678   8.9111   8.9384   9.1147
     9.1847   9.2816   9.4410   9.5546   9.9796   9.9834  10.0032  10.0680
    11.9606  12.0733  12.2122  12.3677  14.0722  14.0909  14.1519  14.3193
    14.8369  14.9042  15.0574  15.1379  15.8006  16.0263  16.0905  16.0974
    16.2409  16.3967  16.5220  17.3219  17.4392

     occupation numbers 
     1.0000   1.0000   1.0000   1.0000   1.0000   1.0000   1.0000   1.0000
     1.0000   1.0000   1.0000   1.0000   1.0000   1.0000   1.0000   1.0000
     1.0000   1.0000   1.0000   1.0000   1.0000   1.0000   1.0000   1.0000
     1.0000   1.0000   1.0000   1.0000   1.0000   1.0000   1.0000   1.0000
     1.0000   1.0000   1.0000   1.0000   1.0000   1.0000   1.0000   1.0000
     1.0000   1.0000   1.0000   1.0000   1.0000   1.0000   1.0000   1.0000
     1.0000   1.0000   1.0000   1.0000   1.0000   1.0000   1.0000   1.0000
     1.0000   1.0000   1.0000   1.0000   1.0000   1.0000   1.0000   1.0000
     1.0000   1.0000   1.0000   1.0000   1.0000   1.0000   1.0000   1.0000
     1.0000   1.0000   1.0000   1.0000   1.0000   1.0000   1.0000   1.0000
     1.0000   1.0000   1.0000   1.0000   0.0000   0.0000   0.0000   0.0000
     0.0000   0.0000   0.0000   0.0000   0.0000   0.0000   0.0000   0.0000
     0.0000   0.0000   0.0000   0.0000   0.0000

          k = 0.0000 0.2000 0.1414 ( 10060 PWs)   bands (ev):

   -48.9752 -48.9740 -48.9729 -48.9716 -23.2867 -23.2781 -23.2738 -23.2730
   -23.2673 -23.2640 -23.2172 -23.2147 -23.2133 -23.2082 -23.2052 -23.2023
   -22.0498 -22.0283 -22.0216 -22.0104  -6.8376  -6.7170  -6.3525  -6.0839
    -6.0532  -5.9780  -5.7752  -5.7414  -5.6801  -5.5227  -5.4633  -5.4393
    -4.2512  -4.2290  -4.0825  -4.0598  -4.0532  -4.0524  -3.9787  -3.9264
    -3.9223  -3.7814  -3.6848  -3.6595   5.4205   5.4374   5.4538   5.5334
     5.5778   5.7370   5.8511   6.2083   6.3703   6.3740   6.9600   7.0854
     7.1327   7.3186   7.3793   7.5162   7.5989   7.6145   7.6653   8.3183
     8.4610   8.4916   8.5661   8.7348   8.8870   8.9555   9.0519   9.0537
     9.2048   9.2122   9.4024   9.4094   9.9210   9.9414  10.0050  10.0327
    12.1604  12.2639  12.2900  12.3519  13.9803  14.0931  14.1401  14.1618
    14.8519  14.9030  14.9768  15.0338  16.0829  16.0924  16.0969  16.1815
    16.3817  16.5388  16.9006  17.5804  17.6182

     occupation numbers 
     1.0000   1.0000   1.0000   1.0000   1.0000   1.0000   1.0000   1.0000
     1.0000   1.0000   1.0000   1.0000   1.0000   1.0000   1.0000   1.0000
     1.0000   1.0000   1.0000   1.0000   1.0000   1.0000   1.0000   1.0000
     1.0000   1.0000   1.0000   1.0000   1.0000   1.0000   1.0000   1.0000
     1.0000   1.0000   1.0000   1.0000   1.0000   1.0000   1.0000   1.0000
     1.0000   1.0000   1.0000   1.0000   1.0000   1.0000   1.0000   1.0000
     1.0000   1.0000   1.0000   1.0000   1.0000   1.0000   1.0000   1.0000
     1.0000   1.0000   1.0000   1.0000   1.0000   1.0000   1.0000   1.0000
     1.0000   1.0000   1.0000   1.0000   1.0000   1.0000   1.0000   1.0000
     1.0000   1.0000   1.0000   1.0000   1.0000   1.0000   1.0000   1.0000
     1.0000   1.0000   1.0000   1.0000   0.0000   0.0000   0.0000   0.0000
     0.0000   0.0000   0.0000   0.0000   0.0000   0.0000   0.0000   0.0000
     0.0000   0.0000   0.0000   0.0000   0.0000

          k = 0.0000 0.2000 0.2828 ( 10071 PWs)   bands (ev):

   -48.9748 -48.9744 -48.9726 -48.9721 -23.2772 -23.2753 -23.2664 -23.2651
   -23.2648 -23.2537 -23.2380 -23.2297 -23.2145 -23.2128 -23.2042 -23.2032
   -22.0430 -22.0348 -22.0181 -22.0139  -6.7739  -6.7181  -6.1638  -6.0337
    -6.0154  -6.0063  -5.8654  -5.7873  -5.6824  -5.6023  -5.5585  -5.5324
    -4.2247  -4.1466  -4.1105  -4.0829  -4.0236  -3.9987  -3.9585  -3.8944
    -3.8782  -3.8386  -3.7641  -3.7357   5.4257   5.4321   5.6049   5.6121
     5.8819   6.0463   6.1646   6.3559   6.5498   6.5849   6.7546   6.8228
     6.9203   7.1355   7.3921   7.4433   7.4589   7.5638   7.7142   7.7874
     8.0834   8.0969   8.6188   8.7325   8.9657   9.0495   9.1625   9.2200
     9.2220   9.3064   9.3086   9.4209   9.6828   9.7423  10.0104  10.0175
    12.2557  12.3100  12.8000  12.8463  13.4745  13.5283  14.3354  14.3695
    14.6432  14.6701  14.9038  14.9755  16.0948  16.0958  16.6098  16.7462
    16.7635  17.1248  17.1461  17.2547  17.3959

     occupation numbers 
     1.0000   1.0000   1.0000   1.0000   1.0000   1.0000   1.0000   1.0000
     1.0000   1.0000   1.0000   1.0000   1.0000   1.0000   1.0000   1.0000
     1.0000   1.0000   1.0000   1.0000   1.0000   1.0000   1.0000   1.0000
     1.0000   1.0000   1.0000   1.0000   1.0000   1.0000   1.0000   1.0000
     1.0000   1.0000   1.0000   1.0000   1.0000   1.0000   1.0000   1.0000
     1.0000   1.0000   1.0000   1.0000   1.0000   1.0000   1.0000   1.0000
     1.0000   1.0000   1.0000   1.0000   1.0000   1.0000   1.0000   1.0000
     1.0000   1.0000   1.0000   1.0000   1.0000   1.0000   1.0000   1.0000
     1.0000   1.0000   1.0000   1.0000   1.0000   1.0000   1.0000   1.0000
     1.0000   1.0000   1.0000   1.0000   1.0000   1.0000   1.0000   1.0000
     1.0000   1.0000   1.0000   1.0000   0.9832   0.8080   0.0000   0.0000
     0.0000   0.0000   0.0000   0.0000   0.0000   0.0000   0.0000   0.0000
     0.0000   0.0000   0.0000   0.0000   0.0000

          k = 0.0000 0.4000 0.0000 ( 10072 PWs)   bands (ev):

   -48.9745 -48.9739 -48.9731 -48.9724 -23.2891 -23.2837 -23.2626 -23.2547
   -23.2486 -23.2448 -23.2389 -23.2312 -23.2248 -23.2211 -23.2055 -23.2035
   -22.0392 -22.0281 -22.0224 -22.0160  -6.7113  -6.6175  -6.5290  -6.0589
    -5.9778  -5.9609  -5.8826  -5.7966  -5.7666  -5.5936  -5.5769  -5.5655
    -4.2393  -4.1593  -4.1136  -4.0554  -3.9654  -3.9087  -3.8573  -3.8468
    -3.7889  -3.7743  -3.7480  -3.7080   5.2933   5.2950   6.0666   6.0681
     6.1107   6.1384   6.2791   6.3616   6.4765   6.4771   6.7901   6.7949
     6.8602   6.9325   7.0020   7.0435   7.3885   7.5321   7.6251   7.6448
     7.8890   8.1688   8.4656   8.6821   8.7726   8.9373   8.9494   9.1240
     9.2268   9.2358   9.3506   9.4482   9.5315   9.6821   9.6875   9.8880
    12.6499  12.8280  13.1456  13.3442  13.4781  13.5738  14.0522  14.3335
    14.3735  14.4778  14.6602  14.8109  16.0498  16.3543  16.7439  17.0534
    17.3382  17.4209  17.4758  17.5359  17.9089

     occupation numbers 
     1.0000   1.0000   1.0000   1.0000   1.0000   1.0000   1.0000   1.0000
     1.0000   1.0000   1.0000   1.0000   1.0000   1.0000   1.0000   1.0000
     1.0000   1.0000   1.0000   1.0000   1.0000   1.0000   1.0000   1.0000
     1.0000   1.0000   1.0000   1.0000   1.0000   1.0000   1.0000   1.0000
     1.0000   1.0000   1.0000   1.0000   1.0000   1.0000   1.0000   1.0000
     1.0000   1.0000   1.0000   1.0000   1.0000   1.0000   1.0000   1.0000
     1.0000   1.0000   1.0000   1.0000   1.0000   1.0000   1.0000   1.0000
     1.0000   1.0000   1.0000   1.0000   1.0000   1.0000   1.0000   1.0000
     1.0000   1.0000   1.0000   1.0000   1.0000   1.0000   1.0000   1.0000
     1.0000   1.0000   1.0000   1.0000   1.0000   1.0000   1.0000   1.0000
     1.0000   1.0000   1.0000   1.0000   0.9800   0.3111   0.0000   0.0000
     0.0000   0.0000   0.0000   0.0000   0.0000   0.0000   0.0000   0.0000
     0.0000   0.0000   0.0000   0.0000   0.0000

          k = 0.0000 0.4000 0.1414 ( 10078 PWs)   bands (ev):

   -48.9745 -48.9736 -48.9735 -48.9724 -23.2814 -23.2762 -23.2617 -23.2554
   -23.2482 -23.2450 -23.2382 -23.2320 -23.2245 -23.2215 -23.2135 -23.2111
   -22.0376 -22.0269 -22.0240 -22.0171  -6.6642  -6.5544  -6.5187  -6.0895
    -5.9654  -5.9623  -5.8778  -5.7950  -5.7635  -5.6570  -5.6081  -5.6073
    -4.2043  -4.1459  -4.1225  -4.0837  -3.9745  -3.9571  -3.8736  -3.8419
    -3.7990  -3.7672  -3.7135  -3.6966   5.5346   5.5383   6.0616   6.0680
     6.1129   6.1344   6.3403   6.4596   6.4982   6.5462   6.7414   6.8284
     6.8489   6.9844   7.0002   7.0589   7.2035   7.4292   7.4350   7.5417
     7.8292   7.9074   8.3289   8.4877   8.8811   8.9505   9.1158   9.1402
     9.1664   9.2834   9.3543   9.4781   9.5356   9.6721   9.6777   9.8626
    12.7870  12.9348  13.1704  13.3424  13.5473  13.6432  14.0615  14.2375
    14.2683  14.3076  14.5589  14.6272  16.4311  16.7532  16.8631  17.1487
    17.3336  17.4300  17.4762  17.6015  17.9570

     occupation numbers 
     1.0000   1.0000   1.0000   1.0000   1.0000   1.0000   1.0000   1.0000
     1.0000   1.0000   1.0000   1.0000   1.0000   1.0000   1.0000   1.0000
     1.0000   1.0000   1.0000   1.0000   1.0000   1.0000   1.0000   1.0000
     1.0000   1.0000   1.0000   1.0000   1.0000   1.0000   1.0000   1.0000
     1.0000   1.0000   1.0000   1.0000   1.0000   1.0000   1.0000   1.0000
     1.0000   1.0000   1.0000   1.0000   1.0000   1.0000   1.0000   1.0000
     1.0000   1.0000   1.0000   1.0000   1.0000   1.0000   1.0000   1.0000
     1.0000   1.0000   1.0000   1.0000   1.0000   1.0000   1.0000   1.0000
     1.0000   1.0000   1.0000   1.0000   1.0000   1.0000   1.0000   1.0000
     1.0000   1.0000   1.0000   1.0000   1.0000   1.0000   1.0000   1.0000
     1.0000   1.0000   1.0000   1.0000   0.6233   0.0149   0.0000   0.0000
     0.0000   0.0000   0.0000   0.0000   0.0000   0.0000   0.0000   0.0000
     0.0000   0.0000   0.0000   0.0000   0.0000

          k = 0.0000 0.4000 0.2828 ( 10090 PWs)   bands (ev):

   -48.9743 -48.9738 -48.9734 -48.9727 -23.2625 -23.2585 -23.2583 -23.2555
   -23.2473 -23.2460 -23.2379 -23.2350 -23.2328 -23.2300 -23.2236 -23.2224
   -22.0333 -22.0281 -22.0239 -22.0201  -6.5669  -6.5151  -6.3880  -6.2033
    -5.9343  -5.9327  -5.8942  -5.8254  -5.7573  -5.7235  -5.6822  -5.6816
    -4.1375  -4.1343  -4.1272  -4.1193  -3.9849  -3.9749  -3.9398  -3.9264
    -3.7348  -3.7245  -3.7047  -3.6946   6.0512   6.0628   6.1186   6.1264
     6.1295   6.1352   6.5137   6.5399   6.5694   6.7432   6.7452   6.7982
     6.8422   6.9444   6.9938   6.9994   7.0726   7.1738   7.1804   7.4900
     7.4951   7.5255   7.7745   7.9020   9.1041   9.1416   9.1686   9.1953
     9.3617   9.3639   9.4372   9.5336   9.5417   9.5469   9.6859   9.7764
    13.1632  13.2633  13.2675  13.2916  13.7351  13.7722  13.8334  13.8693
    14.1698  14.2151  14.2315  14.2488  17.1650  17.3607  17.3841  17.4093
    17.4424  17.4759  17.4986  17.5889  17.8227

     occupation numbers 
     1.0000   1.0000   1.0000   1.0000   1.0000   1.0000   1.0000   1.0000
     1.0000   1.0000   1.0000   1.0000   1.0000   1.0000   1.0000   1.0000
     1.0000   1.0000   1.0000   1.0000   1.0000   1.0000   1.0000   1.0000
     1.0000   1.0000   1.0000   1.0000   1.0000   1.0000   1.0000   1.0000
     1.0000   1.0000   1.0000   1.0000   1.0000   1.0000   1.0000   1.0000
     1.0000   1.0000   1.0000   1.0000   1.0000   1.0000   1.0000   1.0000
     1.0000   1.0000   1.0000   1.0000   1.0000   1.0000   1.0000   1.0000
     1.0000   1.0000   1.0000   1.0000   1.0000   1.0000   1.0000   1.0000
     1.0000   1.0000   1.0000   1.0000   1.0000   1.0000   1.0000   1.0000
     1.0000   1.0000   1.0000   1.0000   1.0000   1.0000   1.0000   1.0000
     1.0000   1.0000   1.0000   1.0000   0.0002   0.0000   0.0000   0.0000
     0.0000   0.0000   0.0000   0.0000   0.0000   0.0000   0.0000   0.0000
     0.0000   0.0000   0.0000   0.0000   0.0000

          k = 0.2000 0.2000 0.0000 ( 10069 PWs)   bands (ev):

   -48.9752 -48.9738 -48.9734 -48.9716 -23.2928 -23.2847 -23.2811 -23.2777
   -23.2515 -23.2475 -23.2350 -23.2282 -23.2068 -23.2027 -23.2008 -23.1972
   -22.0471 -22.0252 -22.0234 -22.0117  -6.7805  -6.7641  -6.5566  -6.0899
    -5.9518  -5.9182  -5.8459  -5.6968  -5.6765  -5.5307  -5.5283  -5.5266
    -4.1927  -4.1368  -4.1071  -4.0321  -4.0246  -4.0007  -3.9728  -3.8860
    -3.8658  -3.7847  -3.6600  -3.6483   5.1908   5.2467   5.2897   5.4010
     5.8535   5.9706   6.2052   6.3802   6.3803   6.4793   6.4894   6.9775
     7.0413   7.3298   7.3854   7.5044   7.5503   7.7060   7.7119   8.2705
     8.4941   8.5138   8.5188   8.7323   8.7481   8.7695   8.8075   8.8724
     9.0226   9.3508   9.5638   9.5731   9.7605   9.7702   9.8075  10.1071
    11.7422  12.6953  12.7051  12.7995  13.5458  14.1738  14.2755  14.3757
    14.7008  14.7457  14.9019  15.0344  15.7068  16.2258  16.2613  16.4208
    16.4588  16.5139  17.1097  17.3249  17.8835

     occupation numbers 
     1.0000   1.0000   1.0000   1.0000   1.0000   1.0000   1.0000   1.0000
     1.0000   1.0000   1.0000   1.0000   1.0000   1.0000   1.0000   1.0000
     1.0000   1.0000   1.0000   1.0000   1.0000   1.0000   1.0000   1.0000
     1.0000   1.0000   1.0000   1.0000   1.0000   1.0000   1.0000   1.0000
     1.0000   1.0000   1.0000   1.0000   1.0000   1.0000   1.0000   1.0000
     1.0000   1.0000   1.0000   1.0000   1.0000   1.0000   1.0000   1.0000
     1.0000   1.0000   1.0000   1.0000   1.0000   1.0000   1.0000   1.0000
     1.0000   1.0000   1.0000   1.0000   1.0000   1.0000   1.0000   1.0000
     1.0000   1.0000   1.0000   1.0000   1.0000   1.0000   1.0000   1.0000
     1.0000   1.0000   1.0000   1.0000   1.0000   1.0000   1.0000   1.0000
     1.0000   1.0000   1.0000   1.0000   0.6400   0.0000   0.0000   0.0000
     0.0000   0.0000   0.0000   0.0000   0.0000   0.0000   0.0000   0.0000
     0.0000   0.0000   0.0000   0.0000   0.0000

          k = 0.2000 0.2000 0.1414 ( 10067 PWs)   bands (ev):

   -48.9750 -48.9738 -48.9734 -48.9718 -23.2858 -23.2830 -23.2784 -23.2737
   -23.2512 -23.2479 -23.2344 -23.2288 -23.2150 -23.2101 -23.2005 -23.1976
   -22.0450 -22.0273 -22.0223 -22.0128  -6.7505  -6.7461  -6.4889  -6.0724
    -5.9656  -5.9324  -5.8119  -5.8059  -5.6720  -5.5876  -5.5378  -5.5224
    -4.2336  -4.1013  -4.0724  -4.0554  -4.0365  -3.9655  -3.9531  -3.8971
    -3.8580  -3.7858  -3.6851  -3.6834   5.2408   5.2484   5.5316   5.5985
     5.8978   6.0141   6.2108   6.3402   6.4571   6.4724   6.6021   6.9531
     7.0639   7.1012   7.2379   7.4803   7.4930   7.6557   7.6884   8.1361
     8.2833   8.3982   8.4092   8.7466   8.7921   8.8310   8.9498   9.0521
     9.0736   9.3101   9.3818   9.4307   9.7154   9.7652   9.8082  10.0381
    12.0431  12.7105  12.7866  12.8112  13.6407  13.9998  14.1755  14.3276
    14.6681  14.7115  14.8785  14.9698  15.8131  16.2113  16.4303  16.5708
    16.6799  16.8472  17.1656  17.5224  17.8060

     occupation numbers 
     1.0000   1.0000   1.0000   1.0000   1.0000   1.0000   1.0000   1.0000
     1.0000   1.0000   1.0000   1.0000   1.0000   1.0000   1.0000   1.0000
     1.0000   1.0000   1.0000   1.0000   1.0000   1.0000   1.0000   1.0000
     1.0000   1.0000   1.0000   1.0000   1.0000   1.0000   1.0000   1.0000
     1.0000   1.0000   1.0000   1.0000   1.0000   1.0000   1.0000   1.0000
     1.0000   1.0000   1.0000   1.0000   1.0000   1.0000   1.0000   1.0000
     1.0000   1.0000   1.0000   1.0000   1.0000   1.0000   1.0000   1.0000
     1.0000   1.0000   1.0000   1.0000   1.0000   1.0000   1.0000   1.0000
     1.0000   1.0000   1.0000   1.0000   1.0000   1.0000   1.0000   1.0000
     1.0000   1.0000   1.0000   1.0000   1.0000   1.0000   1.0000   1.0000
     1.0000   1.0000   1.0000   1.0000   0.0167   0.0000   0.0000   0.0000
     0.0000   0.0000   0.0000   0.0000   0.0000   0.0000   0.0000   0.0000
     0.0000   0.0000   0.0000   0.0000   0.0000

          k = 0.2000 0.2000 0.2828 ( 10073 PWs)   bands (ev):

   -48.9745 -48.9742 -48.9728 -48.9724 -23.2826 -23.2803 -23.2634 -23.2544
   -23.2501 -23.2490 -23.2378 -23.2320 -23.2313 -23.2282 -23.1995 -23.1985
   -22.0394 -22.0327 -22.0194 -22.0158  -6.7102  -6.7052  -6.3095  -6.0976
    -5.9549  -5.9545  -5.9458  -5.8123  -5.6938  -5.6029  -5.5896  -5.5653
    -4.2312  -4.1645  -4.0706  -4.0493  -3.9754  -3.9260  -3.8952  -3.8751
    -3.8197  -3.8188  -3.7750  -3.7475   5.2526   5.2555   6.0005   6.0710
     6.1413   6.1553   6.2225   6.3879   6.4777   6.6994   6.7435   6.8117
     6.8724   6.8963   6.9988   7.1813   7.4475   7.5729   7.6119   7.6291
     7.8857   8.1736   8.4294   8.6279   8.8642   8.9349   9.0800   9.2167
     9.2467   9.2901   9.3625   9.4497   9.5401   9.6827   9.8163   9.8734
    12.6329  12.7501  12.8252  13.1611  13.4714  13.6894  13.9218  14.3186
    14.4877  14.7386  14.7580  14.8286  16.0348  16.1576  16.8599  16.9627
    17.3433  17.3535  17.3823  17.5078  17.7101

     occupation numbers 
     1.0000   1.0000   1.0000   1.0000   1.0000   1.0000   1.0000   1.0000
     1.0000   1.0000   1.0000   1.0000   1.0000   1.0000   1.0000   1.0000
     1.0000   1.0000   1.0000   1.0000   1.0000   1.0000   1.0000   1.0000
     1.0000   1.0000   1.0000   1.0000   1.0000   1.0000   1.0000   1.0000
     1.0000   1.0000   1.0000   1.0000   1.0000   1.0000   1.0000   1.0000
     1.0000   1.0000   1.0000   1.0000   1.0000   1.0000   1.0000   1.0000
     1.0000   1.0000   1.0000   1.0000   1.0000   1.0000   1.0000   1.0000
     1.0000   1.0000   1.0000   1.0000   1.0000   1.0000   1.0000   1.0000
     1.0000   1.0000   1.0000   1.0000   1.0000   1.0000   1.0000   1.0000
     1.0000   1.0000   1.0000   1.0000   1.0000   1.0000   1.0000   1.0000
     1.0000   1.0000   1.0000   1.0000   0.9856   0.0016   0.0000   0.0000
     0.0000   0.0000   0.0000   0.0000   0.0000   0.0000   0.0000   0.0000
     0.0000   0.0000   0.0000   0.0000   0.0000

          k = 0.2000 0.4000 0.0000 ( 10091 PWs)   bands (ev):

   -48.9746 -48.9738 -48.9734 -48.9725 -23.2882 -23.2835 -23.2804 -23.2712
   -23.2619 -23.2524 -23.2272 -23.2237 -23.2078 -23.2055 -23.2053 -23.2028
   -22.0359 -22.0269 -22.0227 -22.0176  -6.8300  -6.7558  -6.4882  -6.0919
    -6.0232  -5.9209  -5.7942  -5.7940  -5.6923  -5.6482  -5.5905  -5.5795
    -4.1475  -4.0820  -4.0809  -4.0492  -4.0281  -3.9133  -3.8607  -3.7869
    -3.7461  -3.7345  -3.7167  -3.6430   5.2678   5.2879   5.5008   5.5749
     5.7851   5.9017   6.1572   6.2191   6.4563   6.7458   6.7706   7.0510
     7.1105   7.2075   7.2911   7.3552   7.4770   7.6439   7.6539   7.7584
     8.0538   8.3662   8.3766   8.4296   8.7366   8.9016   8.9186   8.9370
     9.0469   9.2366   9.3084   9.3682   9.3722   9.3790   9.8107  10.0537
    12.0931  12.8053  13.4633  13.4893  13.6196  14.0711  14.1331  14.3540
    14.4109  14.4944  14.6240  14.9109  15.8383  16.2141  16.8933  16.9038
    17.0733  17.3622  17.5232  17.5959  17.9414

     occupation numbers 
     1.0000   1.0000   1.0000   1.0000   1.0000   1.0000   1.0000   1.0000
     1.0000   1.0000   1.0000   1.0000   1.0000   1.0000   1.0000   1.0000
     1.0000   1.0000   1.0000   1.0000   1.0000   1.0000   1.0000   1.0000
     1.0000   1.0000   1.0000   1.0000   1.0000   1.0000   1.0000   1.0000
     1.0000   1.0000   1.0000   1.0000   1.0000   1.0000   1.0000   1.0000
     1.0000   1.0000   1.0000   1.0000   1.0000   1.0000   1.0000   1.0000
     1.0000   1.0000   1.0000   1.0000   1.0000   1.0000   1.0000   1.0000
     1.0000   1.0000   1.0000   1.0000   1.0000   1.0000   1.0000   1.0000
     1.0000   1.0000   1.0000   1.0000   1.0000   1.0000   1.0000   1.0000
     1.0000   1.0000   1.0000   1.0000   1.0000   1.0000   1.0000   1.0000
     1.0000   1.0000   0.9902   0.9660   0.0456   0.0000   0.0000   0.0000
     0.0000   0.0000   0.0000   0.0000   0.0000   0.0000   0.0000   0.0000
     0.0000   0.0000   0.0000   0.0000   0.0000

          k = 0.2000 0.4000 0.1414 ( 10093 PWs)   bands (ev):

   -48.9744 -48.9739 -48.9733 -48.9726 -23.2819 -23.2781 -23.2762 -23.2721
   -23.2608 -23.2533 -23.2270 -23.2241 -23.2132 -23.2117 -23.2075 -23.2045
   -22.0346 -22.0260 -22.0240 -22.0185  -6.7798  -6.6942  -6.4974  -6.1564
    -6.0004  -5.8909  -5.8218  -5.8054  -5.7108  -5.6473  -5.6185  -5.5979
    -4.1509  -4.0932  -4.0721  -4.0672  -4.0317  -3.9056  -3.8602  -3.7847
    -3.7659  -3.7170  -3.7112  -3.6595   5.4407   5.5011   5.5281   5.6359
     5.8818   5.9780   6.1527   6.2556   6.4453   6.7393   6.8190   7.0422
     7.1308   7.1479   7.1869   7.2945   7.3730   7.4694   7.4786   7.7148
     7.7836   8.3239   8.4720   8.6434   8.7859   8.8029   8.9764   9.0068
     9.0458   9.0933   9.2007   9.3340   9.3719   9.4023   9.7921   9.9967
    12.3236  12.9502  13.5021  13.5134  13.6071  14.0444  14.1100  14.2780
    14.3416  14.3947  14.4678  14.8075  16.0909  16.5791  16.8720  17.0275
    17.1862  17.4494  17.6017  17.6732  17.9147

     occupation numbers 
     1.0000   1.0000   1.0000   1.0000   1.0000   1.0000   1.0000   1.0000
     1.0000   1.0000   1.0000   1.0000   1.0000   1.0000   1.0000   1.0000
     1.0000   1.0000   1.0000   1.0000   1.0000   1.0000   1.0000   1.0000
     1.0000   1.0000   1.0000   1.0000   1.0000   1.0000   1.0000   1.0000
     1.0000   1.0000   1.0000   1.0000   1.0000   1.0000   1.0000   1.0000
     1.0000   1.0000   1.0000   1.0000   1.0000   1.0000   1.0000   1.0000
     1.0000   1.0000   1.0000   1.0000   1.0000   1.0000   1.0000   1.0000
     1.0000   1.0000   1.0000   1.0000   1.0000   1.0000   1.0000   1.0000
     1.0000   1.0000   1.0000   1.0000   1.0000   1.0000   1.0000   1.0000
     1.0000   1.0000   1.0000   1.0000   1.0000   1.0000   1.0000   1.0000
     1.0000   1.0000   0.9383   0.8969   0.0813   0.0000   0.0000   0.0000
     0.0000   0.0000   0.0000   0.0000   0.0000   0.0000   0.0000   0.0000
     0.0000   0.0000   0.0000   0.0000   0.0000

          k = 0.2000 0.4000 0.2828 ( 10093 PWs)   bands (ev):

   -48.9742 -48.9736 -48.9735 -48.9729 -23.2779 -23.2747 -23.2605 -23.2600
   -23.2550 -23.2547 -23.2341 -23.2315 -23.2260 -23.2247 -23.2066 -23.2055
   -22.0313 -22.0272 -22.0237 -22.0208  -6.6599  -6.5478  -6.5312  -6.3260
    -5.9395  -5.8739  -5.8124  -5.8092  -5.7746  -5.7034  -5.6406  -5.6236
    -4.1537  -4.1381  -4.0659  -4.0572  -4.0092  -3.9464  -3.8398  -3.8107
    -3.7308  -3.7115  -3.7095  -3.6914   5.5018   5.5021   6.0398   6.0830
     6.1222   6.1365   6.2992   6.3345   6.5162   6.6591   6.7628   6.8488
     6.9385   7.0003   7.0465   7.1866   7.2275   7.3139   7.4278   7.4771
     7.6483   7.8376   8.2830   8.3784   8.8796   8.9565   8.9922   9.0703
     9.1957   9.2291   9.2837   9.3004   9.4481   9.4679   9.6933   9.7954
    12.8906  13.3433  13.5045  13.5328  13.6520  13.7108  13.9057  14.0713
    14.2556  14.3004  14.3481  14.5261  16.5532  16.7849  17.3396  17.3723
    17.4890  17.7189  17.7457  17.7732  17.8650

     occupation numbers 
     1.0000   1.0000   1.0000   1.0000   1.0000   1.0000   1.0000   1.0000
     1.0000   1.0000   1.0000   1.0000   1.0000   1.0000   1.0000   1.0000
     1.0000   1.0000   1.0000   1.0000   1.0000   1.0000   1.0000   1.0000
     1.0000   1.0000   1.0000   1.0000   1.0000   1.0000   1.0000   1.0000
     1.0000   1.0000   1.0000   1.0000   1.0000   1.0000   1.0000   1.0000
     1.0000   1.0000   1.0000   1.0000   1.0000   1.0000   1.0000   1.0000
     1.0000   1.0000   1.0000   1.0000   1.0000   1.0000   1.0000   1.0000
     1.0000   1.0000   1.0000   1.0000   1.0000   1.0000   1.0000   1.0000
     1.0000   1.0000   1.0000   1.0000   1.0000   1.0000   1.0000   1.0000
     1.0000   1.0000   1.0000   1.0000   1.0000   1.0000   1.0000   1.0000
     1.0000   1.0000   0.9308   0.7708   0.0097   0.0005   0.0000   0.0000
     0.0000   0.0000   0.0000   0.0000   0.0000   0.0000   0.0000   0.0000
     0.0000   0.0000   0.0000   0.0000   0.0000

          k = 0.4000 0.4000 0.0000 ( 10083 PWs)   bands (ev):

   -48.9743 -48.9740 -48.9731 -48.9727 -23.2926 -23.2865 -23.2844 -23.2817
   -23.2796 -23.2725 -23.2066 -23.2057 -23.2045 -23.2027 -23.1993 -23.1959
   -22.0294 -22.0260 -22.0227 -22.0207  -6.9598  -6.9324  -6.3709  -6.2101
    -6.0272  -5.9875  -5.7933  -5.7832  -5.7817  -5.7449  -5.4349  -5.4029
    -4.0612  -4.0513  -4.0436  -4.0314  -4.0104  -4.0061  -3.7609  -3.7186
    -3.6948  -3.6835  -3.5987  -3.5717   5.1820   5.2597   5.2606   5.3874
     5.5054   5.5121   5.5388   5.5607   7.0048   7.0122   7.0553   7.2111
     7.2714   7.5814   7.5968   7.6115   7.6206   7.6656   7.8355   7.8368
     7.9467   8.1547   8.3052   8.3770   8.5620   8.7125   8.7357   8.8073
     8.9249   8.9667   9.1926   9.3021   9.4683   9.4713  10.0474  10.1155
    11.8367  12.1518  14.0063  14.0081  14.0497  14.1529  14.3159  14.3286
    14.3689  14.4336  14.8437  14.8990  15.6566  15.8318  16.5540  16.9367
    17.2296  17.3958  17.5363  17.7222  17.7569

     occupation numbers 
     1.0000   1.0000   1.0000   1.0000   1.0000   1.0000   1.0000   1.0000
     1.0000   1.0000   1.0000   1.0000   1.0000   1.0000   1.0000   1.0000
     1.0000   1.0000   1.0000   1.0000   1.0000   1.0000   1.0000   1.0000
     1.0000   1.0000   1.0000   1.0000   1.0000   1.0000   1.0000   1.0000
     1.0000   1.0000   1.0000   1.0000   1.0000   1.0000   1.0000   1.0000
     1.0000   1.0000   1.0000   1.0000   1.0000   1.0000   1.0000   1.0000
     1.0000   1.0000   1.0000   1.0000   1.0000   1.0000   1.0000   1.0000
     1.0000   1.0000   1.0000   1.0000   1.0000   1.0000   1.0000   1.0000
     1.0000   1.0000   1.0000   1.0000   1.0000   1.0000   1.0000   1.0000
     1.0000   1.0000   1.0000   1.0000   1.0000   1.0000   1.0000   1.0000
     1.0000   1.0000   0.0000   0.0000   0.0000   0.0000   0.0000   0.0000
     0.0000   0.0000   0.0000   0.0000   0.0000   0.0000   0.0000   0.0000
     0.0000   0.0000   0.0000   0.0000   0.0000

          k = 0.4000 0.4000 0.1414 ( 10091 PWs)   bands (ev):

   -48.9742 -48.9738 -48.9733 -48.9729 -23.2911 -23.2842 -23.2808 -23.2775
   -23.2754 -23.2735 -23.2128 -23.2120 -23.2064 -23.2036 -23.1990 -23.1964
   -22.0287 -22.0255 -22.0234 -22.0212  -6.9035  -6.8725  -6.4252  -6.3003
    -5.9997  -5.9572  -5.8239  -5.7861  -5.7383  -5.7160  -5.4805  -5.4398
    -4.0775  -4.0565  -4.0441  -4.0160  -4.0134  -3.9506  -3.7730  -3.7514
    -3.6962  -3.6816  -3.6119  -3.5910   5.2338   5.2599   5.4351   5.5102
     5.5872   5.5889   5.6080   5.7003   6.8727   7.0110   7.1034   7.1342
     7.1963   7.2952   7.3324   7.4737   7.5832   7.6167   7.6200   7.7872
     8.1931   8.3087   8.5270   8.5983   8.6896   8.7408   8.7552   8.8752
     8.8836   8.9248   8.9796   9.2062   9.2137   9.3183   9.9926  10.0466
    12.1303  12.3855  13.9761  13.9988  14.0277  14.0620  14.2001  14.3338
    14.3369  14.4287  14.7470  14.8529  15.8169  16.0811  16.5289  16.9310
    17.3748  17.5158  17.6425  17.8000  17.8990

     occupation numbers 
     1.0000   1.0000   1.0000   1.0000   1.0000   1.0000   1.0000   1.0000
     1.0000   1.0000   1.0000   1.0000   1.0000   1.0000   1.0000   1.0000
     1.0000   1.0000   1.0000   1.0000   1.0000   1.0000   1.0000   1.0000
     1.0000   1.0000   1.0000   1.0000   1.0000   1.0000   1.0000   1.0000
     1.0000   1.0000   1.0000   1.0000   1.0000   1.0000   1.0000   1.0000
     1.0000   1.0000   1.0000   1.0000   1.0000   1.0000   1.0000   1.0000
     1.0000   1.0000   1.0000   1.0000   1.0000   1.0000   1.0000   1.0000
     1.0000   1.0000   1.0000   1.0000   1.0000   1.0000   1.0000   1.0000
     1.0000   1.0000   1.0000   1.0000   1.0000   1.0000   1.0000   1.0000
     1.0000   1.0000   1.0000   1.0000   1.0000   1.0000   1.0000   1.0000
     1.0000   1.0000   0.0000   0.0000   0.0000   0.0000   0.0000   0.0000
     0.0000   0.0000   0.0000   0.0000   0.0000   0.0000   0.0000   0.0000
     0.0000   0.0000   0.0000   0.0000   0.0000

          k = 0.4000 0.4000 0.2828 ( 10112 PWs)   bands (ev):

   -48.9738 -48.9737 -48.9736 -48.9734 -23.2878 -23.2840 -23.2807 -23.2769
   -23.2575 -23.2562 -23.2328 -23.2319 -23.2056 -23.2046 -23.1981 -23.1972
   -22.0271 -22.0250 -22.0242 -22.0226  -6.7557  -6.7113  -6.5722  -6.4981
    -5.9316  -5.8874  -5.8565  -5.8108  -5.6886  -5.6399  -5.5845  -5.5310
    -4.0879  -4.0696  -4.0429  -4.0264  -3.9363  -3.8882  -3.8183  -3.8071
    -3.6812  -3.6722  -3.6429  -3.6370   5.2536   5.2580   5.4992   5.5066
     5.9056   5.9533   6.2366   6.2597   6.3738   6.4685   7.0278   7.0638
     7.0852   7.1254   7.2421   7.3379   7.4570   7.4780   7.4887   7.6533
     8.2916   8.3950   8.4187   8.5447   8.6562   8.7394   8.8017   8.8502
     8.8999   8.9577   9.0560   9.0578   9.3545   9.3796   9.7870   9.8034
    12.7881  12.9545  13.4973  13.6004  14.0637  14.0773  14.1324  14.2858
    14.4258  14.4271  14.5129  14.6383  16.1913  16.4313  16.5789  16.8603
    17.7114  17.8797  17.9408  17.9957  18.0772

     occupation numbers 
     1.0000   1.0000   1.0000   1.0000   1.0000   1.0000   1.0000   1.0000
     1.0000   1.0000   1.0000   1.0000   1.0000   1.0000   1.0000   1.0000
     1.0000   1.0000   1.0000   1.0000   1.0000   1.0000   1.0000   1.0000
     1.0000   1.0000   1.0000   1.0000   1.0000   1.0000   1.0000   1.0000
     1.0000   1.0000   1.0000   1.0000   1.0000   1.0000   1.0000   1.0000
     1.0000   1.0000   1.0000   1.0000   1.0000   1.0000   1.0000   1.0000
     1.0000   1.0000   1.0000   1.0000   1.0000   1.0000   1.0000   1.0000
     1.0000   1.0000   1.0000   1.0000   1.0000   1.0000   1.0000   1.0000
     1.0000   1.0000   1.0000   1.0000   1.0000   1.0000   1.0000   1.0000
     1.0000   1.0000   1.0000   1.0000   1.0000   1.0000   1.0000   1.0000
     1.0000   1.0000   0.9505   0.1095   0.0000   0.0000   0.0000   0.0000
     0.0000   0.0000   0.0000   0.0000   0.0000   0.0000   0.0000   0.0000
     0.0000   0.0000   0.0000   0.0000   0.0000

          k = 0.2000 0.0000 0.0000 ( 10076 PWs)   bands (ev):

   -48.9752 -48.9738 -48.9733 -48.9716 -23.2947 -23.2806 -23.2771 -23.2731
   -23.2696 -23.2639 -23.2146 -23.2117 -23.2074 -23.2073 -23.2022 -23.2016
   -22.0524 -22.0258 -22.0229 -22.0091  -6.8621  -6.7240  -6.4032  -6.1039
    -6.0607  -5.9667  -5.8602  -5.7510  -5.5540  -5.4557  -5.4339  -5.4316
    -4.2262  -4.2082  -4.1637  -4.0439  -4.0433  -4.0149  -3.9978  -3.9942
    -3.9598  -3.7110  -3.6807  -3.6358   5.2631   5.2903   5.4158   5.4374
     5.5774   5.6754   5.8189   6.1797   6.3189   6.3738   6.9054   7.2593
     7.2648   7.3109   7.4858   7.5007   7.6118   7.6185   7.7340   8.4991
     8.5706   8.6187   8.7435   8.7513   8.7791   8.8730   8.9033   9.0662
     9.1748   9.2887   9.4140   9.5362   9.9722   9.9959  10.0007  10.0132
    11.9854  12.0565  12.2434  12.3741  14.0301  14.1468  14.1554  14.3078
    14.8475  14.9157  15.0579  15.1175  15.8246  16.0445  16.0510  16.0727
    16.1901  16.4406  16.5179  17.3832  17.3986

     occupation numbers 
     1.0000   1.0000   1.0000   1.0000   1.0000   1.0000   1.0000   1.0000
     1.0000   1.0000   1.0000   1.0000   1.0000   1.0000   1.0000   1.0000
     1.0000   1.0000   1.0000   1.0000   1.0000   1.0000   1.0000   1.0000
     1.0000   1.0000   1.0000   1.0000   1.0000   1.0000   1.0000   1.0000
     1.0000   1.0000   1.0000   1.0000   1.0000   1.0000   1.0000   1.0000
     1.0000   1.0000   1.0000   1.0000   1.0000   1.0000   1.0000   1.0000
     1.0000   1.0000   1.0000   1.0000   1.0000   1.0000   1.0000   1.0000
     1.0000   1.0000   1.0000   1.0000   1.0000   1.0000   1.0000   1.0000
     1.0000   1.0000   1.0000   1.0000   1.0000   1.0000   1.0000   1.0000
     1.0000   1.0000   1.0000   1.0000   1.0000   1.0000   1.0000   1.0000
     1.0000   1.0000   1.0000   1.0000   0.0000   0.0000   0.0000   0.0000
     0.0000   0.0000   0.0000   0.0000   0.0000   0.0000   0.0000   0.0000
     0.0000   0.0000   0.0000   0.0000   0.0000

          k = 0.2000 0.0000-0.1414 ( 10060 PWs)   bands (ev):

   -48.9752 -48.9740 -48.9730 -48.9716 -23.2867 -23.2765 -23.2734 -23.2731
   -23.2690 -23.2644 -23.2160 -23.2143 -23.2130 -23.2081 -23.2068 -23.2027
   -22.0498 -22.0283 -22.0216 -22.0104  -6.8356  -6.7090  -6.3299  -6.0876
    -6.0540  -5.9783  -5.8440  -5.7196  -5.6534  -5.5055  -5.4802  -5.4684
    -4.2476  -4.1649  -4.0724  -4.0561  -4.0409  -4.0389  -3.9969  -3.9724
    -3.9529  -3.7331  -3.7238  -3.6652   5.4179   5.4353   5.4542   5.5330
     5.5959   5.7244   5.8649   6.2020   6.3730   6.3790   6.9798   7.0817
     7.1479   7.3256   7.3974   7.5417   7.5983   7.6028   7.6448   8.3013
     8.4963   8.5121   8.5920   8.7199   8.9365   8.9569   8.9791   9.0724
     9.1638   9.1864   9.3735   9.4069   9.9107   9.9180  10.0027  10.0111
    12.1851  12.2742  12.2916  12.3597  13.9840  14.0888  14.1011  14.2131
    14.8608  14.9189  14.9590  15.0439  16.0477  16.0714  16.0960  16.2010
    16.3312  16.5763  16.8948  17.5442  17.6298

     occupation numbers 
     1.0000   1.0000   1.0000   1.0000   1.0000   1.0000   1.0000   1.0000
     1.0000   1.0000   1.0000   1.0000   1.0000   1.0000   1.0000   1.0000
     1.0000   1.0000   1.0000   1.0000   1.0000   1.0000   1.0000   1.0000
     1.0000   1.0000   1.0000   1.0000   1.0000   1.0000   1.0000   1.0000
     1.0000   1.0000   1.0000   1.0000   1.0000   1.0000   1.0000   1.0000
     1.0000   1.0000   1.0000   1.0000   1.0000   1.0000   1.0000   1.0000
     1.0000   1.0000   1.0000   1.0000   1.0000   1.0000   1.0000   1.0000
     1.0000   1.0000   1.0000   1.0000   1.0000   1.0000   1.0000   1.0000
     1.0000   1.0000   1.0000   1.0000   1.0000   1.0000   1.0000   1.0000
     1.0000   1.0000   1.0000   1.0000   1.0000   1.0000   1.0000   1.0000
     1.0000   1.0000   1.0000   1.0000   0.0000   0.0000   0.0000   0.0000
     0.0000   0.0000   0.0000   0.0000   0.0000   0.0000   0.0000   0.0000
     0.0000   0.0000   0.0000   0.0000   0.0000

          k = 0.0000 0.2000-0.1414 ( 10060 PWs)   bands (ev):

   -48.9752 -48.9740 -48.9729 -48.9716 -23.2867 -23.2781 -23.2738 -23.2730
   -23.2673 -23.2640 -23.2172 -23.2147 -23.2133 -23.2082 -23.2052 -23.2023
   -22.0498 -22.0283 -22.0216 -22.0104  -6.8376  -6.7170  -6.3525  -6.0839
    -6.0532  -5.9780  -5.7752  -5.7414  -5.6801  -5.5227  -5.4633  -5.4393
    -4.2512  -4.2290  -4.0825  -4.0598  -4.0532  -4.0524  -3.9787  -3.9264
    -3.9223  -3.7814  -3.6848  -3.6595   5.4205   5.4374   5.4538   5.5334
     5.5778   5.7370   5.8511   6.2083   6.3703   6.3740   6.9600   7.0854
     7.1327   7.3186   7.3793   7.5162   7.5989   7.6145   7.6653   8.3183
     8.4610   8.4916   8.5661   8.7348   8.8870   8.9555   9.0519   9.0537
     9.2048   9.2122   9.4024   9.4094   9.9210   9.9414  10.0050  10.0327
    12.1604  12.2639  12.2900  12.3519  13.9803  14.0931  14.1401  14.1618
    14.8519  14.9030  14.9768  15.0338  16.0829  16.0924  16.0969  16.1815
    16.3817  16.5388  16.9006  17.5795  17.6184

     occupation numbers 
     1.0000   1.0000   1.0000   1.0000   1.0000   1.0000   1.0000   1.0000
     1.0000   1.0000   1.0000   1.0000   1.0000   1.0000   1.0000   1.0000
     1.0000   1.0000   1.0000   1.0000   1.0000   1.0000   1.0000   1.0000
     1.0000   1.0000   1.0000   1.0000   1.0000   1.0000   1.0000   1.0000
     1.0000   1.0000   1.0000   1.0000   1.0000   1.0000   1.0000   1.0000
     1.0000   1.0000   1.0000   1.0000   1.0000   1.0000   1.0000   1.0000
     1.0000   1.0000   1.0000   1.0000   1.0000   1.0000   1.0000   1.0000
     1.0000   1.0000   1.0000   1.0000   1.0000   1.0000   1.0000   1.0000
     1.0000   1.0000   1.0000   1.0000   1.0000   1.0000   1.0000   1.0000
     1.0000   1.0000   1.0000   1.0000   1.0000   1.0000   1.0000   1.0000
     1.0000   1.0000   1.0000   1.0000   0.0000   0.0000   0.0000   0.0000
     0.0000   0.0000   0.0000   0.0000   0.0000   0.0000   0.0000   0.0000
     0.0000   0.0000   0.0000   0.0000   0.0000

          k = 0.2000 0.0000-0.2828 ( 10071 PWs)   bands (ev):

   -48.9748 -48.9744 -48.9726 -48.9721 -23.2759 -23.2745 -23.2676 -23.2659
   -23.2648 -23.2537 -23.2380 -23.2296 -23.2133 -23.2121 -23.2055 -23.2040
   -22.0430 -22.0348 -22.0181 -22.0139  -6.7705  -6.7124  -6.1359  -6.0371
    -6.0008  -5.9955  -5.8720  -5.8535  -5.6395  -5.6238  -5.5775  -5.5405
    -4.2289  -4.1480  -4.0501  -4.0332  -4.0235  -4.0034  -3.9858  -3.9230
    -3.8540  -3.8406  -3.8060  -3.7457   5.4233   5.4299   5.6199   5.6219
     5.8733   6.0465   6.1646   6.3527   6.5504   6.5935   6.7496   6.8398
     6.9260   7.1738   7.3570   7.3974   7.5042   7.5561   7.7358   7.7936
     8.0875   8.1181   8.6555   8.7845   8.9483   9.0507   9.1371   9.1661
     9.2112   9.2627   9.3435   9.3652   9.6930   9.6950  10.0083  10.0136
    12.2757  12.3224  12.8259  12.8283  13.4815  13.5259  14.3133  14.4064
    14.6343  14.6915  14.9100  14.9815  16.0564  16.0658  16.6205  16.7119
    16.7672  17.1580  17.1667  17.1930  17.4237

     occupation numbers 
     1.0000   1.0000   1.0000   1.0000   1.0000   1.0000   1.0000   1.0000
     1.0000   1.0000   1.0000   1.0000   1.0000   1.0000   1.0000   1.0000
     1.0000   1.0000   1.0000   1.0000   1.0000   1.0000   1.0000   1.0000
     1.0000   1.0000   1.0000   1.0000   1.0000   1.0000   1.0000   1.0000
     1.0000   1.0000   1.0000   1.0000   1.0000   1.0000   1.0000   1.0000
     1.0000   1.0000   1.0000   1.0000   1.0000   1.0000   1.0000   1.0000
     1.0000   1.0000   1.0000   1.0000   1.0000   1.0000   1.0000   1.0000
     1.0000   1.0000   1.0000   1.0000   1.0000   1.0000   1.0000   1.0000
     1.0000   1.0000   1.0000   1.0000   1.0000   1.0000   1.0000   1.0000
     1.0000   1.0000   1.0000   1.0000   1.0000   1.0000   1.0000   1.0000
     1.0000   1.0000   1.0000   1.0000   0.9765   0.8253   0.0000   0.0000
     0.0000   0.0000   0.0000   0.0000   0.0000   0.0000   0.0000   0.0000
     0.0000   0.0000   0.0000   0.0000   0.0000

          k = 0.0000 0.2000-0.2828 ( 10071 PWs)   bands (ev):

   -48.9748 -48.9744 -48.9726 -48.9721 -23.2772 -23.2753 -23.2664 -23.2651
   -23.2648 -23.2537 -23.2380 -23.2297 -23.2145 -23.2128 -23.2042 -23.2032
   -22.0430 -22.0348 -22.0181 -22.0139  -6.7739  -6.7181  -6.1638  -6.0337
    -6.0154  -6.0063  -5.8654  -5.7873  -5.6824  -5.6023  -5.5585  -5.5324
    -4.2247  -4.1466  -4.1105  -4.0829  -4.0236  -3.9987  -3.9585  -3.8944
    -3.8782  -3.8386  -3.7641  -3.7357   5.4257   5.4321   5.6049   5.6121
     5.8819   6.0463   6.1646   6.3559   6.5498   6.5849   6.7546   6.8228
     6.9203   7.1355   7.3921   7.4433   7.4589   7.5638   7.7142   7.7874
     8.0834   8.0969   8.6188   8.7325   8.9657   9.0495   9.1625   9.2200
     9.2220   9.3064   9.3086   9.4209   9.6828   9.7423  10.0104  10.0175
    12.2557  12.3100  12.8000  12.8463  13.4745  13.5283  14.3354  14.3695
    14.6432  14.6701  14.9038  14.9755  16.0948  16.0958  16.6099  16.7462
    16.7635  17.1248  17.1461  17.2547  17.3960

     occupation numbers 
     1.0000   1.0000   1.0000   1.0000   1.0000   1.0000   1.0000   1.0000
     1.0000   1.0000   1.0000   1.0000   1.0000   1.0000   1.0000   1.0000
     1.0000   1.0000   1.0000   1.0000   1.0000   1.0000   1.0000   1.0000
     1.0000   1.0000   1.0000   1.0000   1.0000   1.0000   1.0000   1.0000
     1.0000   1.0000   1.0000   1.0000   1.0000   1.0000   1.0000   1.0000
     1.0000   1.0000   1.0000   1.0000   1.0000   1.0000   1.0000   1.0000
     1.0000   1.0000   1.0000   1.0000   1.0000   1.0000   1.0000   1.0000
     1.0000   1.0000   1.0000   1.0000   1.0000   1.0000   1.0000   1.0000
     1.0000   1.0000   1.0000   1.0000   1.0000   1.0000   1.0000   1.0000
     1.0000   1.0000   1.0000   1.0000   1.0000   1.0000   1.0000   1.0000
     1.0000   1.0000   1.0000   1.0000   0.9832   0.8080   0.0000   0.0000
     0.0000   0.0000   0.0000   0.0000   0.0000   0.0000   0.0000   0.0000
     0.0000   0.0000   0.0000   0.0000   0.0000

          k = 0.4000 0.0000 0.0000 ( 10072 PWs)   bands (ev):

   -48.9745 -48.9739 -48.9731 -48.9724 -23.2891 -23.2837 -23.2578 -23.2541
   -23.2534 -23.2454 -23.2339 -23.2305 -23.2298 -23.2217 -23.2055 -23.2035
   -22.0393 -22.0282 -22.0222 -22.0158  -6.6870  -6.5866  -6.5219  -6.0407
    -5.9824  -5.9808  -5.9028  -5.8140  -5.8108  -5.6076  -5.5814  -5.5691
    -4.1687  -4.0960  -4.0403  -4.0289  -3.9865  -3.9693  -3.8895  -3.8462
    -3.8409  -3.7671  -3.7499  -3.7482   5.2900   5.2918   6.0911   6.0922
     6.0998   6.1302   6.3002   6.3983   6.4793   6.4828   6.8226   6.8326
     6.8481   6.9591   6.9805   7.0210   7.4485   7.5752   7.6186   7.6544
     7.8415   8.1846   8.4544   8.6783   8.8110   8.8724   8.9630   9.1466
     9.1818   9.1911   9.2949   9.3975   9.5334   9.6720   9.6997   9.8131
    12.6460  12.8411  13.1816  13.3467  13.4276  13.6495  14.0701  14.3445
    14.3891  14.4530  14.6837  14.7681  16.0616  16.3526  16.8227  16.9677
    17.3512  17.3957  17.4700  17.6525  17.9396

     occupation numbers 
     1.0000   1.0000   1.0000   1.0000   1.0000   1.0000   1.0000   1.0000
     1.0000   1.0000   1.0000   1.0000   1.0000   1.0000   1.0000   1.0000
     1.0000   1.0000   1.0000   1.0000   1.0000   1.0000   1.0000   1.0000
     1.0000   1.0000   1.0000   1.0000   1.0000   1.0000   1.0000   1.0000
     1.0000   1.0000   1.0000   1.0000   1.0000   1.0000   1.0000   1.0000
     1.0000   1.0000   1.0000   1.0000   1.0000   1.0000   1.0000   1.0000
     1.0000   1.0000   1.0000   1.0000   1.0000   1.0000   1.0000   1.0000
     1.0000   1.0000   1.0000   1.0000   1.0000   1.0000   1.0000   1.0000
     1.0000   1.0000   1.0000   1.0000   1.0000   1.0000   1.0000   1.0000
     1.0000   1.0000   1.0000   1.0000   1.0000   1.0000   1.0000   1.0000
     1.0000   1.0000   1.0000   1.0000   0.9983   0.0109   0.0000   0.0000
     0.0000   0.0000   0.0000   0.0000   0.0000   0.0000   0.0000   0.0000
     0.0000   0.0000   0.0000   0.0000   0.0000

          k = 0.4000 0.0000-0.1414 ( 10078 PWs)   bands (ev):

   -48.9745 -48.9736 -48.9735 -48.9724 -23.2814 -23.2762 -23.2574 -23.2544
   -23.2526 -23.2461 -23.2336 -23.2310 -23.2292 -23.2226 -23.2135 -23.2111
   -22.0377 -22.0270 -22.0238 -22.0170  -6.6401  -6.5216  -6.5112  -6.0673
    -5.9831  -5.9656  -5.8853  -5.8414  -5.7923  -5.6385  -5.6352  -5.6297
    -4.1345  -4.0870  -4.0552  -4.0520  -4.0395  -3.9415  -3.9285  -3.8217
[...]
     7.7893   8.3276   8.4427   8.6378   8.7981   8.8232   8.9402   8.9663
     9.0470   9.0542   9.2412   9.2964   9.3707   9.3729   9.7719   9.9728
    12.3296  12.9546  13.5139  13.5199  13.6027  14.0513  14.1291  14.2804
    14.3336  14.4077  14.4703  14.8139  16.0813  16.5719  16.8589  17.0539
    17.1733  17.4452  17.6228  17.7286  17.9451

     occupation numbers 
     1.0000   1.0000   1.0000   1.0000   1.0000   1.0000   1.0000   1.0000
     1.0000   1.0000   1.0000   1.0000   1.0000   1.0000   1.0000   1.0000
     1.0000   1.0000   1.0000   1.0000   1.0000   1.0000   1.0000   1.0000
     1.0000   1.0000   1.0000   1.0000   1.0000   1.0000   1.0000   1.0000
     1.0000   1.0000   1.0000   1.0000   1.0000   1.0000   1.0000   1.0000
     1.0000   1.0000   1.0000   1.0000   1.0000   1.0000   1.0000   1.0000
     1.0000   1.0000   1.0000   1.0000   1.0000   1.0000   1.0000   1.0000
     1.0000   1.0000   1.0000   1.0000   1.0000   1.0000   1.0000   1.0000
     1.0000   1.0000   1.0000   1.0000   1.0000   1.0000   1.0000   1.0000
     1.0000   1.0000   1.0000   1.0000   1.0000   1.0000   1.0000   1.0000
     1.0000   1.0000   0.8946   0.8635   0.0986   0.0000   0.0000   0.0000
     0.0000   0.0000   0.0000   0.0000   0.0000   0.0000   0.0000   0.0000
     0.0000   0.0000   0.0000   0.0000   0.0000

          k =-0.4000-0.2000-0.1414 ( 10093 PWs)   bands (ev):

   -48.9744 -48.9739 -48.9733 -48.9726 -23.2815 -23.2781 -23.2762 -23.2720
   -23.2604 -23.2531 -23.2274 -23.2242 -23.2133 -23.2117 -23.2079 -23.2046
   -22.0346 -22.0260 -22.0239 -22.0184  -6.7689  -6.6811  -6.4919  -6.1475
    -6.0086  -5.9140  -5.8201  -5.7761  -5.6924  -5.6896  -5.6303  -5.6295
    -4.1197  -4.0787  -4.0659  -4.0422  -3.9855  -3.8855  -3.8754  -3.8234
    -3.7987  -3.7330  -3.7258  -3.6648   5.4399   5.5046   5.5267   5.6398
     5.8906   5.9900   6.1575   6.2595   6.4461   6.7482   6.8274   7.0539
     7.1406   7.1524   7.2159   7.2904   7.4024   7.4593   7.4765   7.7322
     7.7893   8.3276   8.4427   8.6378   8.7981   8.8232   8.9402   8.9663
     9.0470   9.0542   9.2412   9.2964   9.3707   9.3729   9.7719   9.9728
    12.3296  12.9546  13.5139  13.5199  13.6027  14.0513  14.1291  14.2804
    14.3336  14.4077  14.4703  14.8139  16.0813  16.5719  16.8589  17.0539
    17.1733  17.4453  17.6229  17.7286  17.9448

     occupation numbers 
     1.0000   1.0000   1.0000   1.0000   1.0000   1.0000   1.0000   1.0000
     1.0000   1.0000   1.0000   1.0000   1.0000   1.0000   1.0000   1.0000
     1.0000   1.0000   1.0000   1.0000   1.0000   1.0000   1.0000   1.0000
     1.0000   1.0000   1.0000   1.0000   1.0000   1.0000   1.0000   1.0000
     1.0000   1.0000   1.0000   1.0000   1.0000   1.0000   1.0000   1.0000
     1.0000   1.0000   1.0000   1.0000   1.0000   1.0000   1.0000   1.0000
     1.0000   1.0000   1.0000   1.0000   1.0000   1.0000   1.0000   1.0000
     1.0000   1.0000   1.0000   1.0000   1.0000   1.0000   1.0000   1.0000
     1.0000   1.0000   1.0000   1.0000   1.0000   1.0000   1.0000   1.0000
     1.0000   1.0000   1.0000   1.0000   1.0000   1.0000   1.0000   1.0000
     1.0000   1.0000   0.8946   0.8635   0.0986   0.0000   0.0000   0.0000
     0.0000   0.0000   0.0000   0.0000   0.0000   0.0000   0.0000   0.0000
     0.0000   0.0000   0.0000   0.0000   0.0000

          k =-0.2000 0.4000-0.1414 ( 10093 PWs)   bands (ev):

   -48.9744 -48.9739 -48.9733 -48.9726 -23.2819 -23.2781 -23.2762 -23.2721
   -23.2608 -23.2533 -23.2270 -23.2241 -23.2132 -23.2117 -23.2075 -23.2045
   -22.0346 -22.0260 -22.0240 -22.0185  -6.7798  -6.6942  -6.4974  -6.1564
    -6.0004  -5.8909  -5.8218  -5.8054  -5.7108  -5.6473  -5.6185  -5.5979
    -4.1509  -4.0932  -4.0721  -4.0672  -4.0317  -3.9056  -3.8602  -3.7847
    -3.7659  -3.7170  -3.7112  -3.6595   5.4407   5.5011   5.5281   5.6359
     5.8818   5.9780   6.1527   6.2556   6.4453   6.7393   6.8190   7.0422
     7.1308   7.1479   7.1869   7.2945   7.3730   7.4694   7.4786   7.7148
     7.7836   8.3239   8.4720   8.6434   8.7859   8.8029   8.9764   9.0068
     9.0458   9.0933   9.2007   9.3340   9.3719   9.4023   9.7921   9.9967
    12.3236  12.9502  13.5021  13.5134  13.6071  14.0444  14.1100  14.2780
    14.3416  14.3947  14.4678  14.8075  16.0909  16.5791  16.8720  17.0275
    17.1861  17.4492  17.6015  17.6732  17.9145

     occupation numbers 
     1.0000   1.0000   1.0000   1.0000   1.0000   1.0000   1.0000   1.0000
     1.0000   1.0000   1.0000   1.0000   1.0000   1.0000   1.0000   1.0000
     1.0000   1.0000   1.0000   1.0000   1.0000   1.0000   1.0000   1.0000
     1.0000   1.0000   1.0000   1.0000   1.0000   1.0000   1.0000   1.0000
     1.0000   1.0000   1.0000   1.0000   1.0000   1.0000   1.0000   1.0000
     1.0000   1.0000   1.0000   1.0000   1.0000   1.0000   1.0000   1.0000
     1.0000   1.0000   1.0000   1.0000   1.0000   1.0000   1.0000   1.0000
     1.0000   1.0000   1.0000   1.0000   1.0000   1.0000   1.0000   1.0000
     1.0000   1.0000   1.0000   1.0000   1.0000   1.0000   1.0000   1.0000
     1.0000   1.0000   1.0000   1.0000   1.0000   1.0000   1.0000   1.0000
     1.0000   1.0000   0.9383   0.8969   0.0813   0.0000   0.0000   0.0000
     0.0000   0.0000   0.0000   0.0000   0.0000   0.0000   0.0000   0.0000
     0.0000   0.0000   0.0000   0.0000   0.0000

          k = 0.4000 0.2000-0.2828 ( 10093 PWs)   bands (ev):

   -48.9742 -48.9736 -48.9735 -48.9729 -23.2774 -23.2745 -23.2604 -23.2595
   -23.2551 -23.2546 -23.2341 -23.2316 -23.2263 -23.2249 -23.2070 -23.2057
   -22.0313 -22.0272 -22.0237 -22.0207  -6.6502  -6.5408  -6.5180  -6.3151
    -5.9394  -5.8749  -5.8192  -5.7950  -5.7739  -5.7406  -5.6567  -5.6475
    -4.1384  -4.1290  -4.0693  -4.0527  -3.9236  -3.8787  -3.8733  -3.8507
    -3.7548  -3.7323  -3.7311  -3.7104   5.5047   5.5055   6.0516   6.0963
     6.1203   6.1427   6.2948   6.3413   6.5212   6.6770   6.7672   6.8524
     6.9353   7.0084   7.0491   7.1854   7.2246   7.3131   7.4483   7.5017
     7.6496   7.8358   8.3130   8.4064   8.8554   8.9167   8.9694   9.0653
     9.1626   9.2311   9.2317   9.3468   9.4113   9.4612   9.6702   9.7728
    12.8978  13.3548  13.5063  13.5503  13.6538  13.7110  13.9020  14.0686
    14.2700  14.3143  14.3592  14.5369  16.5367  16.7672  17.3170  17.3616
    17.4907  17.7568  17.8004  17.8436  17.9184

     occupation numbers 
     1.0000   1.0000   1.0000   1.0000   1.0000   1.0000   1.0000   1.0000
     1.0000   1.0000   1.0000   1.0000   1.0000   1.0000   1.0000   1.0000
     1.0000   1.0000   1.0000   1.0000   1.0000   1.0000   1.0000   1.0000
     1.0000   1.0000   1.0000   1.0000   1.0000   1.0000   1.0000   1.0000
     1.0000   1.0000   1.0000   1.0000   1.0000   1.0000   1.0000   1.0000
     1.0000   1.0000   1.0000   1.0000   1.0000   1.0000   1.0000   1.0000
     1.0000   1.0000   1.0000   1.0000   1.0000   1.0000   1.0000   1.0000
     1.0000   1.0000   1.0000   1.0000   1.0000   1.0000   1.0000   1.0000
     1.0000   1.0000   1.0000   1.0000   1.0000   1.0000   1.0000   1.0000
     1.0000   1.0000   1.0000   1.0000   1.0000   1.0000   1.0000   1.0000
     1.0000   1.0000   0.9252   0.5878   0.0089   0.0005   0.0000   0.0000
     0.0000   0.0000   0.0000   0.0000   0.0000   0.0000   0.0000   0.0000
     0.0000   0.0000   0.0000   0.0000   0.0000

          k =-0.4000-0.2000-0.2828 ( 10093 PWs)   bands (ev):

   -48.9742 -48.9736 -48.9735 -48.9729 -23.2774 -23.2745 -23.2604 -23.2595
   -23.2551 -23.2546 -23.2341 -23.2316 -23.2263 -23.2249 -23.2070 -23.2057
   -22.0313 -22.0272 -22.0237 -22.0207  -6.6502  -6.5408  -6.5180  -6.3151
    -5.9394  -5.8749  -5.8192  -5.7950  -5.7739  -5.7406  -5.6567  -5.6475
    -4.1384  -4.1290  -4.0693  -4.0527  -3.9236  -3.8787  -3.8733  -3.8507
    -3.7548  -3.7323  -3.7311  -3.7104   5.5047   5.5055   6.0516   6.0963
     6.1203   6.1427   6.2948   6.3413   6.5212   6.6770   6.7672   6.8524
     6.9353   7.0084   7.0491   7.1854   7.2246   7.3131   7.4483   7.5017
     7.6496   7.8358   8.3130   8.4064   8.8554   8.9167   8.9694   9.0653
     9.1626   9.2311   9.2317   9.3468   9.4113   9.4612   9.6702   9.7728
    12.8978  13.3548  13.5063  13.5503  13.6538  13.7110  13.9020  14.0686
    14.2700  14.3143  14.3592  14.5369  16.5367  16.7672  17.3170  17.3616
    17.4907  17.7569  17.8004  17.8435  17.9173

     occupation numbers 
     1.0000   1.0000   1.0000   1.0000   1.0000   1.0000   1.0000   1.0000
     1.0000   1.0000   1.0000   1.0000   1.0000   1.0000   1.0000   1.0000
     1.0000   1.0000   1.0000   1.0000   1.0000   1.0000   1.0000   1.0000
     1.0000   1.0000   1.0000   1.0000   1.0000   1.0000   1.0000   1.0000
     1.0000   1.0000   1.0000   1.0000   1.0000   1.0000   1.0000   1.0000
     1.0000   1.0000   1.0000   1.0000   1.0000   1.0000   1.0000   1.0000
     1.0000   1.0000   1.0000   1.0000   1.0000   1.0000   1.0000   1.0000
     1.0000   1.0000   1.0000   1.0000   1.0000   1.0000   1.0000   1.0000
     1.0000   1.0000   1.0000   1.0000   1.0000   1.0000   1.0000   1.0000
     1.0000   1.0000   1.0000   1.0000   1.0000   1.0000   1.0000   1.0000
     1.0000   1.0000   0.9252   0.5878   0.0089   0.0005   0.0000   0.0000
     0.0000   0.0000   0.0000   0.0000   0.0000   0.0000   0.0000   0.0000
     0.0000   0.0000   0.0000   0.0000   0.0000

          k =-0.2000 0.4000-0.2828 ( 10093 PWs)   bands (ev):

   -48.9742 -48.9736 -48.9735 -48.9729 -23.2779 -23.2747 -23.2605 -23.2600
   -23.2550 -23.2547 -23.2341 -23.2315 -23.2260 -23.2247 -23.2066 -23.2055
   -22.0313 -22.0272 -22.0237 -22.0208  -6.6599  -6.5478  -6.5312  -6.3260
    -5.9395  -5.8739  -5.8124  -5.8092  -5.7746  -5.7034  -5.6406  -5.6236
    -4.1537  -4.1381  -4.0659  -4.0572  -4.0092  -3.9464  -3.8398  -3.8107
    -3.7308  -3.7115  -3.7095  -3.6914   5.5018   5.5021   6.0398   6.0830
     6.1222   6.1365   6.2992   6.3345   6.5162   6.6591   6.7628   6.8488
     6.9385   7.0003   7.0465   7.1866   7.2275   7.3139   7.4278   7.4771
     7.6483   7.8376   8.2830   8.3784   8.8796   8.9565   8.9922   9.0703
     9.1957   9.2291   9.2837   9.3004   9.4481   9.4679   9.6933   9.7954
    12.8906  13.3433  13.5045  13.5328  13.6520  13.7108  13.9057  14.0713
    14.2556  14.3004  14.3481  14.5261  16.5532  16.7849  17.3396  17.3723
    17.4890  17.7189  17.7463  17.7732  17.8667

     occupation numbers 
     1.0000   1.0000   1.0000   1.0000   1.0000   1.0000   1.0000   1.0000
     1.0000   1.0000   1.0000   1.0000   1.0000   1.0000   1.0000   1.0000
     1.0000   1.0000   1.0000   1.0000   1.0000   1.0000   1.0000   1.0000
     1.0000   1.0000   1.0000   1.0000   1.0000   1.0000   1.0000   1.0000
     1.0000   1.0000   1.0000   1.0000   1.0000   1.0000   1.0000   1.0000
     1.0000   1.0000   1.0000   1.0000   1.0000   1.0000   1.0000   1.0000
     1.0000   1.0000   1.0000   1.0000   1.0000   1.0000   1.0000   1.0000
     1.0000   1.0000   1.0000   1.0000   1.0000   1.0000   1.0000   1.0000
     1.0000   1.0000   1.0000   1.0000   1.0000   1.0000   1.0000   1.0000
     1.0000   1.0000   1.0000   1.0000   1.0000   1.0000   1.0000   1.0000
     1.0000   1.0000   0.9308   0.7708   0.0097   0.0005   0.0000   0.0000
     0.0000   0.0000   0.0000   0.0000   0.0000   0.0000   0.0000   0.0000
     0.0000   0.0000   0.0000   0.0000   0.0000

          k = 0.4000 0.4000-0.1414 ( 10091 PWs)   bands (ev):

   -48.9742 -48.9738 -48.9733 -48.9729 -23.2911 -23.2842 -23.2808 -23.2775
   -23.2754 -23.2735 -23.2128 -23.2120 -23.2064 -23.2036 -23.1990 -23.1964
   -22.0287 -22.0255 -22.0234 -22.0212  -6.9035  -6.8725  -6.4252  -6.3003
    -5.9997  -5.9572  -5.8239  -5.7861  -5.7383  -5.7160  -5.4805  -5.4398
    -4.0775  -4.0565  -4.0441  -4.0160  -4.0134  -3.9506  -3.7730  -3.7514
    -3.6962  -3.6816  -3.6119  -3.5910   5.2338   5.2599   5.4351   5.5102
     5.5872   5.5889   5.6080   5.7003   6.8727   7.0110   7.1034   7.1342
     7.1963   7.2952   7.3324   7.4737   7.5832   7.6167   7.6200   7.7872
     8.1931   8.3087   8.5270   8.5983   8.6896   8.7408   8.7552   8.8752
     8.8836   8.9248   8.9796   9.2062   9.2137   9.3183   9.9926  10.0466
    12.1303  12.3855  13.9761  13.9988  14.0277  14.0620  14.2001  14.3338
    14.3369  14.4287  14.7470  14.8529  15.8169  16.0811  16.5289  16.9310
    17.3748  17.5158  17.6425  17.7999  17.8989

     occupation numbers 
     1.0000   1.0000   1.0000   1.0000   1.0000   1.0000   1.0000   1.0000
     1.0000   1.0000   1.0000   1.0000   1.0000   1.0000   1.0000   1.0000
     1.0000   1.0000   1.0000   1.0000   1.0000   1.0000   1.0000   1.0000
     1.0000   1.0000   1.0000   1.0000   1.0000   1.0000   1.0000   1.0000
     1.0000   1.0000   1.0000   1.0000   1.0000   1.0000   1.0000   1.0000
     1.0000   1.0000   1.0000   1.0000   1.0000   1.0000   1.0000   1.0000
     1.0000   1.0000   1.0000   1.0000   1.0000   1.0000   1.0000   1.0000
     1.0000   1.0000   1.0000   1.0000   1.0000   1.0000   1.0000   1.0000
     1.0000   1.0000   1.0000   1.0000   1.0000   1.0000   1.0000   1.0000
     1.0000   1.0000   1.0000   1.0000   1.0000   1.0000   1.0000   1.0000
     1.0000   1.0000   0.0000   0.0000   0.0000   0.0000   0.0000   0.0000
     0.0000   0.0000   0.0000   0.0000   0.0000   0.0000   0.0000   0.0000
     0.0000   0.0000   0.0000   0.0000   0.0000

          k = 0.4000 0.4000-0.2828 ( 10112 PWs)   bands (ev):

   -48.9738 -48.9737 -48.9736 -48.9734 -23.2878 -23.2840 -23.2807 -23.2769
   -23.2575 -23.2562 -23.2328 -23.2319 -23.2056 -23.2046 -23.1981 -23.1972
   -22.0271 -22.0250 -22.0242 -22.0226  -6.7557  -6.7113  -6.5722  -6.4981
    -5.9316  -5.8874  -5.8565  -5.8108  -5.6886  -5.6399  -5.5845  -5.5310
    -4.0879  -4.0696  -4.0429  -4.0264  -3.9363  -3.8882  -3.8183  -3.8071
    -3.6812  -3.6722  -3.6429  -3.6370   5.2536   5.2580   5.4992   5.5066
     5.9056   5.9533   6.2366   6.2597   6.3738   6.4685   7.0278   7.0638
     7.0852   7.1254   7.2421   7.3379   7.4570   7.4780   7.4887   7.6533
     8.2916   8.3950   8.4187   8.5447   8.6562   8.7394   8.8017   8.8502
     8.8999   8.9577   9.0560   9.0578   9.3545   9.3796   9.7870   9.8034
    12.7881  12.9545  13.4973  13.6004  14.0637  14.0773  14.1324  14.2858
    14.4258  14.4271  14.5129  14.6383  16.1913  16.4313  16.5789  16.8603
    17.7114  17.8797  17.9407  17.9955  18.0772

     occupation numbers 
     1.0000   1.0000   1.0000   1.0000   1.0000   1.0000   1.0000   1.0000
     1.0000   1.0000   1.0000   1.0000   1.0000   1.0000   1.0000   1.0000
     1.0000   1.0000   1.0000   1.0000   1.0000   1.0000   1.0000   1.0000
     1.0000   1.0000   1.0000   1.0000   1.0000   1.0000   1.0000   1.0000
     1.0000   1.0000   1.0000   1.0000   1.0000   1.0000   1.0000   1.0000
     1.0000   1.0000   1.0000   1.0000   1.0000   1.0000   1.0000   1.0000
     1.0000   1.0000   1.0000   1.0000   1.0000   1.0000   1.0000   1.0000
     1.0000   1.0000   1.0000   1.0000   1.0000   1.0000   1.0000   1.0000
     1.0000   1.0000   1.0000   1.0000   1.0000   1.0000   1.0000   1.0000
     1.0000   1.0000   1.0000   1.0000   1.0000   1.0000   1.0000   1.0000
     1.0000   1.0000   0.9505   0.1095   0.0000   0.0000   0.0000   0.0000
     0.0000   0.0000   0.0000   0.0000   0.0000   0.0000   0.0000   0.0000
     0.0000   0.0000   0.0000   0.0000   0.0000

     the Fermi energy is    13.5576 ev

!    total energy              =   -2923.82549574 Ry
     total all-electron energy =    -59563.352197 Ry
     estimated scf accuracy    <          8.6E-11 Ry
     smearing contrib. (-TS)   =      -0.00127189 Ry
     internal energy E=F+TS    =   -2923.82422386 Ry

     The total energy is F=E-TS. E is the sum of the following terms:
     one-electron contribution =    -275.56641303 Ry
     hartree contribution      =     246.84643683 Ry
     xc contribution           =    -239.27917489 Ry
     ewald contribution        =    -937.28754921 Ry
     one-center paw contrib.   =   -1718.53752357 Ry
      -> PAW hartree energy AE =      35.06425298 Ry
      -> PAW hartree energy PS =     -34.86439445 Ry
      -> PAW xc energy AE      =    -201.60977411 Ry
      -> PAW xc energy PS      =      17.14007138 Ry
      -> total E_H with PAW    =     247.04629535 Ry
      -> total E_XC with PAW   =    -423.74887761 Ry

     convergence has been achieved in  22 iterations

     Writing all to output data dir ./out/smo.save/ :
     XML data file, charge density, pseudopotentials, collected wavefunctions

     init_run     :      2.34s CPU      2.59s WALL (       1 calls)
     electrons    :     62.04s CPU     73.15s WALL (       1 calls)

     Called by init_run:
     wfcinit      :      0.85s CPU      0.89s WALL (       1 calls)
     wfcinit:atom :      0.01s CPU      0.01s WALL (       1 calls)
     wfcinit:wfcr :      0.78s CPU      0.79s WALL (       1 calls)
     potinit      :      0.26s CPU      0.35s WALL (       1 calls)
     hinit0       :      1.12s CPU      1.15s WALL (       1 calls)

     Called by electrons:
     c_bands      :     47.98s CPU     57.07s WALL (      22 calls)
     sum_band     :      8.53s CPU      9.29s WALL (      22 calls)
     v_of_rho     :      2.04s CPU      2.12s WALL (      23 calls)
     v_h          :      0.91s CPU      0.97s WALL (      23 calls)
     v_xc         :      1.13s CPU      1.15s WALL (      23 calls)
     newd         :      0.80s CPU      0.98s WALL (      23 calls)
     PAW_pot      :      0.63s CPU      1.05s WALL (      23 calls)
     mix_rho      :      0.58s CPU      0.62s WALL (      22 calls)

     Called by c_bands:
     init_us_2    :      0.86s CPU      0.88s WALL (      45 calls)
     cegterg      :     44.65s CPU     45.08s WALL (      22 calls)

     Called by sum_band:
     sum_band:wei :      0.03s CPU      0.08s WALL (      22 calls)
     sum_band:loo :      5.86s CPU      5.88s WALL (      22 calls)
     sum_band:buf :      0.00s CPU      0.00s WALL (      22 calls)
     sum_band:ini :      0.45s CPU      0.45s WALL (      22 calls)
     sum_band:cal :      1.25s CPU      1.25s WALL (      22 calls)
     sum_band:bec :      0.00s CPU      0.00s WALL (      22 calls)
     addusdens    :      0.83s CPU      1.01s WALL (      22 calls)
                                        0.00s GPU  (      22 calls)
     addusd:skk   :      0.01s CPU      0.01s WALL (      66 calls)
                                        0.00s GPU  (      66 calls)

     Called by *egterg:
     cdiaghg      :      1.65s CPU      1.65s WALL (     144 calls)
     cegterg:over :      3.60s CPU      3.62s WALL (     122 calls)
     cegterg:upda :      2.38s CPU      2.42s WALL (     122 calls)
     cegterg:last :      4.57s CPU      4.59s WALL (      43 calls)
     h_psi        :     27.98s CPU     28.24s WALL (     145 calls)
     s_psi        :      3.63s CPU      3.64s WALL (     145 calls)
     g_psi        :      0.08s CPU      0.09s WALL (     122 calls)

     Called by h_psi:
     h_psi:calbec :      3.42s CPU      3.43s WALL (     145 calls)
     vloc_psi     :     20.66s CPU     20.76s WALL (     145 calls)
                                        0.00s GPU  (     145 calls)
     add_vuspsi   :      3.78s CPU      3.79s WALL (     145 calls)

     General routines
     calbec       :      4.66s CPU      4.68s WALL (     167 calls)
     fft          :      1.45s CPU      1.46s WALL (     136 calls)
     ffts         :      0.10s CPU      0.10s WALL (      45 calls)
     fftw         :     22.86s CPU     22.96s WALL (   13250 calls)
     interpolate  :      0.58s CPU      0.59s WALL (      23 calls)

     Parallel routines

     PAW routines
     PAW_pot      :      0.63s CPU      1.05s WALL (      23 calls)
     PAW_symme    :      0.02s CPU      0.03s WALL (      45 calls)

     PWSCF        :   1m 4.74s CPU   1m18.55s WALL


   This run was terminated on:  20:36:10  29Nov2025            

=------------------------------------------------------------------------------=
   JOB DONE.
=------------------------------------------------------------------------------=
