
             +---------------------------------------------------+
             |                                                   |
             |                   WANNIER90                       |
             |                                                   |
             +---------------------------------------------------+
             |                                                   |
             |        Welcome to the Maximally-Localized         |
             |        Generalized Wannier Functions code         |
             |            http://www.wannier.org                 |
             |                                                   |
             |                                                   |
             |  Wannier90 Developer Group:                       |
             |    Giovanni Pizzi    (Paul Scherrer Institute)    |
             |    Valerio Vitale    (University of Trieste)      |
             |    David Vanderbilt  (Rutgers University)         |
             |    Nicola Marzari    (EPFL)                       |
             |    Ivo Souza         (Universidad del Pais Vasco) |
             |    Arash A. Mostofi  (Imperial College London)    |
             |    Jonathan R. Yates (University of Oxford)       |
             |                                                   |
             |  For the full list of Wannier90 3.x authors,      |
             |  please check the code documentation and the      |
             |  README on the GitHub page of the code            |
             |                                                   |
             |                                                   |
             |  Please cite                                      |
             |                                                   |
             |  [ref] "Wannier90 as a community code:            |
             |        new features and applications",            |
             |        G. Pizzi et al., J. Phys. Cond. Matt. 32,  |
             |        165902 (2020).                             |
             |        http://doi.org/10.1088/1361-648X/ab51ff    |
             |                                                   |
             |  in any publications arising from the use of      |
             |  this code. For the method please cite            |
             |                                                   |
             |  [ref] "Maximally Localized Generalised Wannier   |
             |         Functions for Composite Energy Bands"     |
             |         N. Marzari and D. Vanderbilt              |
             |         Phys. Rev. B 56 12847 (1997)              |
             |                                                   |
             |  [ref] "Maximally Localized Wannier Functions     |
             |         for Entangled Energy Bands"               |
             |         I. Souza, N. Marzari and D. Vanderbilt    |
             |         Phys. Rev. B 65 035109 (2001)             |
             |                                                   |
             |                                                   |
             | Copyright (c) 1996-2020                           |
             |        The Wannier90 Developer Group and          |
             |        individual contributors                    |
             |                                                   |
             |      Release: 3.1.0        5th March    2020      |
             |                                                   |
             | This program is free software; you can            |
             | redistribute it and/or modify it under the terms  |
             | of the GNU General Public License as published by |
             | the Free Software Foundation; either version 2 of |
             | the License, or (at your option) any later version|
             |                                                   |
             | This program is distributed in the hope that it   |
             | will be useful, but WITHOUT ANY WARRANTY; without |
             | even the implied warranty of MERCHANTABILITY or   |
             | FITNESS FOR A PARTICULAR PURPOSE. See the GNU     |
             | General Public License for more details.          |
             |                                                   |
             | You should have received a copy of the GNU General|
             | Public License along with this program; if not,   |
             | write to the Free Software Foundation, Inc.,      |
             | 675 Mass Ave, Cambridge, MA 02139, USA.           |
             |                                                   |
             +---------------------------------------------------+
             |    Execution started on 29Nov2025 at 20:40:44     |
             +---------------------------------------------------+
 
 ******************************************************************************
 * -> Using CODATA 2006 constant values                                       *
 *    (http://physics.nist.gov/cuu/Constants/index.html)                      *
 * -> Using Bohr value from CODATA                                            *
 ******************************************************************************

 Running in parallel on 128 CPUs

                                    ------
                                    SYSTEM
                                    ------

                              Lattice Vectors (Ang)
                    a_1     5.613960   0.000000   0.000000
                    a_2     0.000000   5.613960   0.000000
                    a_3     0.000000   0.000000   7.939340

                   Unit Cell Volume:     250.22058  (Ang^3)

                        Reciprocal-Space Vectors (Ang^-1)
                    b_1     1.119207   0.000000   0.000000
                    b_2     0.000000   1.119207   0.000000
                    b_3     0.000000   0.000000   0.791399
  
 *----------------------------------------------------------------------------*
 |   Site       Fractional Coordinate          Cartesian Coordinate (Ang)     |
 +----------------------------------------------------------------------------+
 | sr   1   0.00000   0.50000   0.25000   |    0.00000   2.80698   1.98483    |
 | sr   2   0.00000   0.50000   0.75000   |    0.00000   2.80698   5.95450    |
 | sr   3   0.50000   0.00000   0.75000   |    2.80698   0.00000   5.95450    |
 | sr   4   0.50000   0.00000   0.25000   |    2.80698   0.00000   1.98483    |
 | mo   1   0.00000   0.00000   0.00000   |    0.00000   0.00000   0.00000    |
 | mo   2   0.00000   0.00000   0.50000   |    0.00000   0.00000   3.96967    |
 | mo   3   0.50000   0.50000   0.50000   |    2.80698   2.80698   3.96967    |
 | mo   4   0.50000   0.50000   0.00000   |    2.80698   2.80698   0.00000    |
 | o    1   0.25000   0.75000  -0.01781   |    1.40349   4.21047  -0.14142    |
 | o    2   0.25000   0.25000   0.01781   |    1.40349   1.40349   0.14142    |
 | o    3   0.75000   0.25000   0.48219   |    4.21047   1.40349   3.82825    |
 | o    4   0.75000   0.75000   0.51781   |    4.21047   4.21047   4.11109    |
 | o    5   0.75000   0.25000   0.01781   |    4.21047   1.40349   0.14142    |
 | o    6   0.75000   0.75000  -0.01781   |    4.21047   4.21047  -0.14142    |
 | o    7   0.25000   0.75000   0.51781   |    1.40349   4.21047   4.11109    |
 | o    8   0.25000   0.25000   0.48219   |    1.40349   1.40349   3.82825    |
 | o    9   0.00000  -0.03562   0.25000   |    0.00000  -0.19999   1.98483    |
 | o   10   0.00000   0.03562   0.75000   |    0.00000   0.19999   5.95450    |
 | o   11   0.50000   0.46438   0.75000   |    2.80698   2.60699   5.95450    |
 | o   12   0.50000   0.53562   0.25000   |    2.80698   3.00697   1.98483    |
 *----------------------------------------------------------------------------*
                                -----------
                                PROJECTIONS
                                -----------
  
 +----------------------------------------------------------------------------+
 |     Frac. Coord.   l mr  r        z-axis               x-axis          Z/a |
 +----------------------------------------------------------------------------+
 |  0.00  0.00  0.00  2  2  1  0.000  0.000  1.000  0.707  0.707  0.000   1.0 |
 |  0.00  0.00  0.00  2  3  1  0.000  0.000  1.000  0.707  0.707  0.000   1.0 |
 |  0.00  0.00  0.00  2  5  1  0.000  0.000  1.000  0.707  0.707  0.000   1.0 |
 |  0.00  0.00  0.50  2  2  1  0.000  0.000  1.000  0.707  0.707  0.000   1.0 |
 |  0.00  0.00  0.50  2  3  1  0.000  0.000  1.000  0.707  0.707  0.000   1.0 |
 |  0.00  0.00  0.50  2  5  1  0.000  0.000  1.000  0.707  0.707  0.000   1.0 |
 |  0.50  0.50  0.50  2  2  1  0.000  0.000  1.000  0.707  0.707  0.000   1.0 |
 |  0.50  0.50  0.50  2  3  1  0.000  0.000  1.000  0.707  0.707  0.000   1.0 |
 |  0.50  0.50  0.50  2  5  1  0.000  0.000  1.000  0.707  0.707  0.000   1.0 |
 |  0.50  0.50  0.00  2  2  1  0.000  0.000  1.000  0.707  0.707  0.000   1.0 |
 |  0.50  0.50  0.00  2  3  1  0.000  0.000  1.000  0.707  0.707  0.000   1.0 |
 |  0.50  0.50  0.00  2  5  1  0.000  0.000  1.000  0.707  0.707  0.000   1.0 |
 |  0.00  0.00  0.00  2  1  1  0.000  0.000  1.000  0.707  0.707  0.000   1.0 |
 |  0.00  0.00  0.00  2  4  1  0.000  0.000  1.000  0.707  0.707  0.000   1.0 |
 |  0.00  0.00  0.50  2  1  1  0.000  0.000  1.000  0.707  0.707  0.000   1.0 |
 |  0.00  0.00  0.50  2  4  1  0.000  0.000  1.000  0.707  0.707  0.000   1.0 |
 |  0.50  0.50  0.50  2  1  1  0.000  0.000  1.000  0.707  0.707  0.000   1.0 |
 |  0.50  0.50  0.50  2  4  1  0.000  0.000  1.000  0.707  0.707  0.000   1.0 |
 |  0.50  0.50  0.00  2  1  1  0.000  0.000  1.000  0.707  0.707  0.000   1.0 |
 |  0.50  0.50  0.00  2  4  1  0.000  0.000  1.000  0.707  0.707  0.000   1.0 |
 |  0.25  0.75 -0.02  1  1  1  0.000  0.000  1.000  1.000  0.000  0.000   1.0 |
 |  0.25  0.75 -0.02  1  2  1  0.000  0.000  1.000  1.000  0.000  0.000   1.0 |
 |  0.25  0.75 -0.02  1  3  1  0.000  0.000  1.000  1.000  0.000  0.000   1.0 |
 |  0.25  0.25  0.02  1  1  1  0.000  0.000  1.000  1.000  0.000  0.000   1.0 |
 |  0.25  0.25  0.02  1  2  1  0.000  0.000  1.000  1.000  0.000  0.000   1.0 |
 |  0.25  0.25  0.02  1  3  1  0.000  0.000  1.000  1.000  0.000  0.000   1.0 |
 |  0.75  0.25  0.48  1  1  1  0.000  0.000  1.000  1.000  0.000  0.000   1.0 |
 |  0.75  0.25  0.48  1  2  1  0.000  0.000  1.000  1.000  0.000  0.000   1.0 |
 |  0.75  0.25  0.48  1  3  1  0.000  0.000  1.000  1.000  0.000  0.000   1.0 |
 |  0.75  0.75  0.52  1  1  1  0.000  0.000  1.000  1.000  0.000  0.000   1.0 |
 |  0.75  0.75  0.52  1  2  1  0.000  0.000  1.000  1.000  0.000  0.000   1.0 |
 |  0.75  0.75  0.52  1  3  1  0.000  0.000  1.000  1.000  0.000  0.000   1.0 |
 |  0.75  0.25  0.02  1  1  1  0.000  0.000  1.000  1.000  0.000  0.000   1.0 |
 |  0.75  0.25  0.02  1  2  1  0.000  0.000  1.000  1.000  0.000  0.000   1.0 |
 |  0.75  0.25  0.02  1  3  1  0.000  0.000  1.000  1.000  0.000  0.000   1.0 |
 |  0.75  0.75 -0.02  1  1  1  0.000  0.000  1.000  1.000  0.000  0.000   1.0 |
 |  0.75  0.75 -0.02  1  2  1  0.000  0.000  1.000  1.000  0.000  0.000   1.0 |
 |  0.75  0.75 -0.02  1  3  1  0.000  0.000  1.000  1.000  0.000  0.000   1.0 |
 |  0.25  0.75  0.52  1  1  1  0.000  0.000  1.000  1.000  0.000  0.000   1.0 |
 |  0.25  0.75  0.52  1  2  1  0.000  0.000  1.000  1.000  0.000  0.000   1.0 |
 |  0.25  0.75  0.52  1  3  1  0.000  0.000  1.000  1.000  0.000  0.000   1.0 |
 |  0.25  0.25  0.48  1  1  1  0.000  0.000  1.000  1.000  0.000  0.000   1.0 |
 |  0.25  0.25  0.48  1  2  1  0.000  0.000  1.000  1.000  0.000  0.000   1.0 |
 |  0.25  0.25  0.48  1  3  1  0.000  0.000  1.000  1.000  0.000  0.000   1.0 |
 |  0.00 -0.04  0.25  1  1  1  0.000  0.000  1.000  1.000  0.000  0.000   1.0 |
 |  0.00 -0.04  0.25  1  2  1  0.000  0.000  1.000  1.000  0.000  0.000   1.0 |
 |  0.00 -0.04  0.25  1  3  1  0.000  0.000  1.000  1.000  0.000  0.000   1.0 |
 |  0.00  0.04  0.75  1  1  1  0.000  0.000  1.000  1.000  0.000  0.000   1.0 |
 |  0.00  0.04  0.75  1  2  1  0.000  0.000  1.000  1.000  0.000  0.000   1.0 |
 |  0.00  0.04  0.75  1  3  1  0.000  0.000  1.000  1.000  0.000  0.000   1.0 |
 |  0.50  0.46  0.75  1  1  1  0.000  0.000  1.000  1.000  0.000  0.000   1.0 |
 |  0.50  0.46  0.75  1  2  1  0.000  0.000  1.000  1.000  0.000  0.000   1.0 |
 |  0.50  0.46  0.75  1  3  1  0.000  0.000  1.000  1.000  0.000  0.000   1.0 |
 |  0.50  0.54  0.25  1  1  1  0.000  0.000  1.000  1.000  0.000  0.000   1.0 |
 |  0.50  0.54  0.25  1  2  1  0.000  0.000  1.000  1.000  0.000  0.000   1.0 |
 |  0.50  0.54  0.25  1  3  1  0.000  0.000  1.000  1.000  0.000  0.000   1.0 |
 +----------------------------------------------------------------------------+
  
                                ------------
                                K-POINT GRID
                                ------------
  
             Grid size =  5 x  5 x  5      Total points =  125
  
 *----------------------------------------------------------------------------*
 | k-point      Fractional Coordinate        Cartesian Coordinate (Ang^-1)    |
 +----------------------------------------------------------------------------+
 |     1    0.00000   0.00000   0.00000   |    0.00000   0.00000   0.00000    |
 |     2    0.00000   0.00000   0.20000   |    0.00000   0.00000   0.15828    |
 |     3    0.00000   0.00000   0.40000   |    0.00000   0.00000   0.31656    |
 |     4    0.00000   0.00000   0.60000   |    0.00000   0.00000   0.47484    |
 |     5    0.00000   0.00000   0.80000   |    0.00000   0.00000   0.63312    |
 |     6    0.00000   0.20000   0.00000   |    0.00000   0.22384   0.00000    |
 |     7    0.00000   0.20000   0.20000   |    0.00000   0.22384   0.15828    |
 |     8    0.00000   0.20000   0.40000   |    0.00000   0.22384   0.31656    |
 |     9    0.00000   0.20000   0.60000   |    0.00000   0.22384   0.47484    |
 |    10    0.00000   0.20000   0.80000   |    0.00000   0.22384   0.63312    |
 |    11    0.00000   0.40000   0.00000   |    0.00000   0.44768   0.00000    |
 |    12    0.00000   0.40000   0.20000   |    0.00000   0.44768   0.15828    |
 |    13    0.00000   0.40000   0.40000   |    0.00000   0.44768   0.31656    |
 |    14    0.00000   0.40000   0.60000   |    0.00000   0.44768   0.47484    |
 |    15    0.00000   0.40000   0.80000   |    0.00000   0.44768   0.63312    |
 |    16    0.00000   0.60000   0.00000   |    0.00000   0.67152   0.00000    |
 |    17    0.00000   0.60000   0.20000   |    0.00000   0.67152   0.15828    |
 |    18    0.00000   0.60000   0.40000   |    0.00000   0.67152   0.31656    |
 |    19    0.00000   0.60000   0.60000   |    0.00000   0.67152   0.47484    |
 |    20    0.00000   0.60000   0.80000   |    0.00000   0.67152   0.63312    |
 |    21    0.00000   0.80000   0.00000   |    0.00000   0.89537   0.00000    |
 |    22    0.00000   0.80000   0.20000   |    0.00000   0.89537   0.15828    |
 |    23    0.00000   0.80000   0.40000   |    0.00000   0.89537   0.31656    |
 |    24    0.00000   0.80000   0.60000   |    0.00000   0.89537   0.47484    |
 |    25    0.00000   0.80000   0.80000   |    0.00000   0.89537   0.63312    |
 |    26    0.20000   0.00000   0.00000   |    0.22384   0.00000   0.00000    |
 |    27    0.20000   0.00000   0.20000   |    0.22384   0.00000   0.15828    |
 |    28    0.20000   0.00000   0.40000   |    0.22384   0.00000   0.31656    |
 |    29    0.20000   0.00000   0.60000   |    0.22384   0.00000   0.47484    |
 |    30    0.20000   0.00000   0.80000   |    0.22384   0.00000   0.63312    |
 |    31    0.20000   0.20000   0.00000   |    0.22384   0.22384   0.00000    |
 |    32    0.20000   0.20000   0.20000   |    0.22384   0.22384   0.15828    |
 |    33    0.20000   0.20000   0.40000   |    0.22384   0.22384   0.31656    |
 |    34    0.20000   0.20000   0.60000   |    0.22384   0.22384   0.47484    |
 |    35    0.20000   0.20000   0.80000   |    0.22384   0.22384   0.63312    |
 |    36    0.20000   0.40000   0.00000   |    0.22384   0.44768   0.00000    |
 |    37    0.20000   0.40000   0.20000   |    0.22384   0.44768   0.15828    |
 |    38    0.20000   0.40000   0.40000   |    0.22384   0.44768   0.31656    |
 |    39    0.20000   0.40000   0.60000   |    0.22384   0.44768   0.47484    |
 |    40    0.20000   0.40000   0.80000   |    0.22384   0.44768   0.63312    |
 |    41    0.20000   0.60000   0.00000   |    0.22384   0.67152   0.00000    |
 |    42    0.20000   0.60000   0.20000   |    0.22384   0.67152   0.15828    |
 |    43    0.20000   0.60000   0.40000   |    0.22384   0.67152   0.31656    |
 |    44    0.20000   0.60000   0.60000   |    0.22384   0.67152   0.47484    |
 |    45    0.20000   0.60000   0.80000   |    0.22384   0.67152   0.63312    |
 |    46    0.20000   0.80000   0.00000   |    0.22384   0.89537   0.00000    |
 |    47    0.20000   0.80000   0.20000   |    0.22384   0.89537   0.15828    |
 |    48    0.20000   0.80000   0.40000   |    0.22384   0.89537   0.31656    |
 |    49    0.20000   0.80000   0.60000   |    0.22384   0.89537   0.47484    |
 |    50    0.20000   0.80000   0.80000   |    0.22384   0.89537   0.63312    |
 |    51    0.40000   0.00000   0.00000   |    0.44768   0.00000   0.00000    |
 |    52    0.40000   0.00000   0.20000   |    0.44768   0.00000   0.15828    |
 |    53    0.40000   0.00000   0.40000   |    0.44768   0.00000   0.31656    |
 |    54    0.40000   0.00000   0.60000   |    0.44768   0.00000   0.47484    |
 |    55    0.40000   0.00000   0.80000   |    0.44768   0.00000   0.63312    |
 |    56    0.40000   0.20000   0.00000   |    0.44768   0.22384   0.00000    |
 |    57    0.40000   0.20000   0.20000   |    0.44768   0.22384   0.15828    |
 |    58    0.40000   0.20000   0.40000   |    0.44768   0.22384   0.31656    |
 |    59    0.40000   0.20000   0.60000   |    0.44768   0.22384   0.47484    |
 |    60    0.40000   0.20000   0.80000   |    0.44768   0.22384   0.63312    |
 |    61    0.40000   0.40000   0.00000   |    0.44768   0.44768   0.00000    |
 |    62    0.40000   0.40000   0.20000   |    0.44768   0.44768   0.15828    |
 |    63    0.40000   0.40000   0.40000   |    0.44768   0.44768   0.31656    |
 |    64    0.40000   0.40000   0.60000   |    0.44768   0.44768   0.47484    |
 |    65    0.40000   0.40000   0.80000   |    0.44768   0.44768   0.63312    |
 |    66    0.40000   0.60000   0.00000   |    0.44768   0.67152   0.00000    |
 |    67    0.40000   0.60000   0.20000   |    0.44768   0.67152   0.15828    |
 |    68    0.40000   0.60000   0.40000   |    0.44768   0.67152   0.31656    |
 |    69    0.40000   0.60000   0.60000   |    0.44768   0.67152   0.47484    |
 |    70    0.40000   0.60000   0.80000   |    0.44768   0.67152   0.63312    |
 |    71    0.40000   0.80000   0.00000   |    0.44768   0.89537   0.00000    |
 |    72    0.40000   0.80000   0.20000   |    0.44768   0.89537   0.15828    |
 |    73    0.40000   0.80000   0.40000   |    0.44768   0.89537   0.31656    |
 |    74    0.40000   0.80000   0.60000   |    0.44768   0.89537   0.47484    |
 |    75    0.40000   0.80000   0.80000   |    0.44768   0.89537   0.63312    |
 |    76    0.60000   0.00000   0.00000   |    0.67152   0.00000   0.00000    |
 |    77    0.60000   0.00000   0.20000   |    0.67152   0.00000   0.15828    |
 |    78    0.60000   0.00000   0.40000   |    0.67152   0.00000   0.31656    |
 |    79    0.60000   0.00000   0.60000   |    0.67152   0.00000   0.47484    |
 |    80    0.60000   0.00000   0.80000   |    0.67152   0.00000   0.63312    |
 |    81    0.60000   0.20000   0.00000   |    0.67152   0.22384   0.00000    |
 |    82    0.60000   0.20000   0.20000   |    0.67152   0.22384   0.15828    |
 |    83    0.60000   0.20000   0.40000   |    0.67152   0.22384   0.31656    |
 |    84    0.60000   0.20000   0.60000   |    0.67152   0.22384   0.47484    |
 |    85    0.60000   0.20000   0.80000   |    0.67152   0.22384   0.63312    |
 |    86    0.60000   0.40000   0.00000   |    0.67152   0.44768   0.00000    |
 |    87    0.60000   0.40000   0.20000   |    0.67152   0.44768   0.15828    |
 |    88    0.60000   0.40000   0.40000   |    0.67152   0.44768   0.31656    |
 |    89    0.60000   0.40000   0.60000   |    0.67152   0.44768   0.47484    |
 |    90    0.60000   0.40000   0.80000   |    0.67152   0.44768   0.63312    |
 |    91    0.60000   0.60000   0.00000   |    0.67152   0.67152   0.00000    |
 |    92    0.60000   0.60000   0.20000   |    0.67152   0.67152   0.15828    |
 |    93    0.60000   0.60000   0.40000   |    0.67152   0.67152   0.31656    |
 |    94    0.60000   0.60000   0.60000   |    0.67152   0.67152   0.47484    |
 |    95    0.60000   0.60000   0.80000   |    0.67152   0.67152   0.63312    |
 |    96    0.60000   0.80000   0.00000   |    0.67152   0.89537   0.00000    |
 |    97    0.60000   0.80000   0.20000   |    0.67152   0.89537   0.15828    |
 |    98    0.60000   0.80000   0.40000   |    0.67152   0.89537   0.31656    |
 |    99    0.60000   0.80000   0.60000   |    0.67152   0.89537   0.47484    |
 |   100    0.60000   0.80000   0.80000   |    0.67152   0.89537   0.63312    |
 |   101    0.80000   0.00000   0.00000   |    0.89537   0.00000   0.00000    |
 |   102    0.80000   0.00000   0.20000   |    0.89537   0.00000   0.15828    |
 |   103    0.80000   0.00000   0.40000   |    0.89537   0.00000   0.31656    |
 |   104    0.80000   0.00000   0.60000   |    0.89537   0.00000   0.47484    |
 |   105    0.80000   0.00000   0.80000   |    0.89537   0.00000   0.63312    |
 |   106    0.80000   0.20000   0.00000   |    0.89537   0.22384   0.00000    |
 |   107    0.80000   0.20000   0.20000   |    0.89537   0.22384   0.15828    |
 |   108    0.80000   0.20000   0.40000   |    0.89537   0.22384   0.31656    |
 |   109    0.80000   0.20000   0.60000   |    0.89537   0.22384   0.47484    |
 |   110    0.80000   0.20000   0.80000   |    0.89537   0.22384   0.63312    |
 |   111    0.80000   0.40000   0.00000   |    0.89537   0.44768   0.00000    |
 |   112    0.80000   0.40000   0.20000   |    0.89537   0.44768   0.15828    |
 |   113    0.80000   0.40000   0.40000   |    0.89537   0.44768   0.31656    |
 |   114    0.80000   0.40000   0.60000   |    0.89537   0.44768   0.47484    |
 |   115    0.80000   0.40000   0.80000   |    0.89537   0.44768   0.63312    |
 |   116    0.80000   0.60000   0.00000   |    0.89537   0.67152   0.00000    |
 |   117    0.80000   0.60000   0.20000   |    0.89537   0.67152   0.15828    |
 |   118    0.80000   0.60000   0.40000   |    0.89537   0.67152   0.31656    |
 |   119    0.80000   0.60000   0.60000   |    0.89537   0.67152   0.47484    |
 |   120    0.80000   0.60000   0.80000   |    0.89537   0.67152   0.63312    |
 |   121    0.80000   0.80000   0.00000   |    0.89537   0.89537   0.00000    |
 |   122    0.80000   0.80000   0.20000   |    0.89537   0.89537   0.15828    |
 |   123    0.80000   0.80000   0.40000   |    0.89537   0.89537   0.31656    |
 |   124    0.80000   0.80000   0.60000   |    0.89537   0.89537   0.47484    |
 |   125    0.80000   0.80000   0.80000   |    0.89537   0.89537   0.63312    |
 *----------------------------------------------------------------------------*
  
  
 *---------------------------------- MAIN ------------------------------------*
 |  Number of Wannier Functions               :                56             |
 |  Number of Objective Wannier Functions     :                56             |
 |  Number of input Bloch states              :                56             |
 |  Output verbosity (1=low, 5=high)          :                 2             |
 |  Timing Level (1=low, 5=high)              :                 1             |
 |  Optimisation (0=memory, 3=speed)          :                 3             |
 |  Length Unit                               :               Ang             |
 |  Post-processing setup (write *.nnkp)      :                 F             |
 |  Using Gamma-only branch of algorithms     :                 F             |
 *----------------------------------------------------------------------------*
 *------------------------------- WANNIERISE ---------------------------------*
 |  Total number of iterations                :             10000             |
 |  Number of CG steps before reset           :                 5             |
 |  Trial step length for line search         :             2.000             |
 |  Convergence tolerence                     :         0.100E-11             |
 |  Convergence window                        :                 5             |
 |  Iterations between writing output         :               200             |
 |  Iterations between backing up to disk     :               100             |
 |  Write r^2_nm to file                      :                 F             |
 |  Write xyz WF centres to file              :                 F             |
 |  Write on-site energies <0n|H|0n> to file  :                 F             |
 |  Use guiding centre to control phases      :                 F             |
 |  Use phases for initial projections        :                 F             |
 *----------------------------------------------------------------------------*
 *-------------------------------- PLOTTING ----------------------------------*
 |  Plotting interpolated bandstructure       :                 T             |
 |   Number of K-path sections                :                 7             |
 |   Divisions along first K-path section     :               100             |
 |   Output format                            :           gnuplot             |
 |   Output mode                              :               s-k             |
 *----------------------------------------------------------------------------*
 |   K-space path sections:                                                   |
 |    From: G       0.000  0.000  0.000     To: X       0.000  0.500  0.000   |
 |    From: X       0.000  0.500  0.000     To: M       0.500  0.500  0.000   |
 |    From: M       0.500  0.500  0.000     To: G       0.000  0.000  0.000   |
 |    From: G       0.000  0.000  0.000     To: Z       0.000  0.000  0.500   |
 |    From: Z       0.000  0.000  0.500     To: R       0.000  0.500  0.500   |
 |    From: R       0.000  0.500  0.500     To: A       0.500  0.500  0.500   |
 |    From: A       0.500  0.500  0.500     To: Z       0.000  0.000  0.500   |
 *----------------------------------------------------------------------------*
 |  Plotting Hamiltonian in WF basis          :                 T             |
 *----------------------------------------------------------------------------*

 *---------------------------------- K-MESH ----------------------------------*
 +----------------------------------------------------------------------------+
 |                    Distance to Nearest-Neighbour Shells                    |
 |                    ------------------------------------                    |
 |          Shell             Distance (Ang^-1)          Multiplicity         |
 |          -----             -----------------          ------------         |
 |             1                   0.158280                      2            |
 |             2                   0.223841                      4            |
 |             3                   0.274149                      8            |
 |             4                   0.316560                      6            |
 |             5                   0.353924                      8            |
 |             6                   0.387705                      8            |
 |             7                   0.447683                     12            |
 |             8                   0.474839                     10            |
 |             9                   0.500525                      8            |
 |            10                   0.524955                     24            |
 |            11                   0.548297                      8            |
 |            12                   0.570686                      8            |
 |            13                   0.592229                     16            |
 |            14                   0.633119                      6            |
 |            15                   0.652604                     16            |
 |            16                   0.671524                     12            |
 |            17                   0.689926                     24            |
 |            18                   0.707849                     24            |
 |            19                   0.725329                     16            |
 |            20                   0.742398                      8            |
 |            21                   0.775409                     24            |
 |            22                   0.791399                     10            |
 |            23                   0.807072                     24            |
 |            24                   0.822446                     32            |
 |            25                   0.852363                     24            |
 |            26                   0.866934                     16            |
 |            27                   0.895366                     12            |
 |            28                   0.909248                     16            |
 |            29                   0.922922                     16            |
 |            30                   0.936396                     48            |
 |            31                   0.949679                     30            |
 |            32                   0.962779                      8            |
 |            33                   0.975702                     24            |
 |            34                   1.001049                     24            |
 |            35                   1.013485                     32            |
 |            36                   1.025770                     16            |
 +----------------------------------------------------------------------------+
 | The b-vectors are chosen automatically                                     |
 | Shell:  1 w_b   19.9580947      (Ang^2)                                    |
 | Shell:  1 w_b   19.9580947      (Ang^2)                                    |
 | Shell:  2 w_b    9.9790432      (Ang^2)                                    |
 | The following shells are used:   1,  2                 |
 +----------------------------------------------------------------------------+
 |                        Shell   # Nearest-Neighbours                        |
 |                        -----   --------------------                        |
 |                          1               2                                 |
 |                          2               4                                 |
 +----------------------------------------------------------------------------+
 | Completeness relation is fully satisfied [Eq. (B1), PRB 56, 12847 (1997)]  |
 +----------------------------------------------------------------------------+
 |                  b_k Vectors (Ang^-1) and Weights (Ang^2)                  |
 |                  ----------------------------------------                  |
 |            No.         b_k(x)      b_k(y)      b_k(z)        w_b           |
 |            ---        --------------------------------     --------        |
 |             1         0.000000    0.000000    0.158280    19.958095        |
 |             2         0.000000    0.000000   -0.158280    19.958095        |
 |             3         0.000000    0.223841    0.000000     9.979043        |
 |             4         0.223841    0.000000    0.000000     9.979043        |
 |             5         0.000000   -0.223841    0.000000     9.979043        |
 |             6        -0.223841    0.000000    0.000000     9.979043        |
 +----------------------------------------------------------------------------+
 |                           b_k Directions (Ang^-1)                          |
 |                           -----------------------                          |
 |            No.           x           y           z                         |
 |            ---        --------------------------------                     |
 |             1         0.000000    0.000000    0.158280                     |
 |             2         0.000000    0.223841    0.000000                     |
 |             3         0.223841    0.000000    0.000000                     |
 +----------------------------------------------------------------------------+
  
 Starting a new Wannier90 calculation ...


 Reading overlaps from smo.mmn    :  Created on 29Nov2025 at 20:40:14

 Reading projections from smo.amn :  Created on 29Nov2025 at 20:39:55

 *------------------------------- WANNIERISE ---------------------------------*
 +--------------------------------------------------------------------+<-- CONV
 | Iter  Delta Spread     RMS Gradient      Spread (Ang^2)      Time  |<-- CONV
 +--------------------------------------------------------------------+<-- CONV

 ------------------------------------------------------------------------------
 Initial State
  WF centre and spread    1  (  0.001603,  0.001347,  0.001593 )     2.64009582
  WF centre and spread    2  ( -0.000160, -0.000158, -0.000907 )     2.63233913
  WF centre and spread    3  (  0.000029, -0.000042, -0.000032 )     1.44132748
  WF centre and spread    4  ( -0.000062,  0.000684,  3.970726 )     2.68636400
  WF centre and spread    5  (  0.001054,  0.000670,  3.969754 )     2.69012615
  WF centre and spread    6  ( -0.000025,  0.000044,  3.969618 )     1.44393838
  WF centre and spread    7  (  2.808073,  2.807546,  3.967384 )     2.68226816
  WF centre and spread    8  (  2.806725,  2.807037,  3.969205 )     2.67374601
  WF centre and spread    9  (  2.806996,  2.807018,  3.969701 )     1.44456774
  WF centre and spread   10  (  2.807025,  2.806365, -0.001357 )     2.63359191
  WF centre and spread   11  (  2.807072,  2.807527, -0.003783 )     2.63925092
  WF centre and spread   12  (  2.806943,  2.806940, -0.000031 )     1.44081740
  WF centre and spread   13  (  0.007570,  0.001539,  0.047157 )    34.11065823
  WF centre and spread   14  (  0.138280,  0.048202, -0.126070 )    37.25437100
  WF centre and spread   15  (  0.028270,  0.043629,  3.958657 )    36.21709644
  WF centre and spread   16  (  0.071197,  0.003727,  3.972357 )    37.56060586
  WF centre and spread   17  (  2.825113,  2.800891,  3.911903 )    35.62691891
  WF centre and spread   18  (  2.827026,  2.895714,  4.025748 )    37.46841762
  WF centre and spread   19  (  2.773739,  2.778918, -0.088079 )    34.71463801
  WF centre and spread   20  (  2.931022,  2.883492, -0.092956 )    36.47840907
  WF centre and spread   21  (  1.403498,  4.210485, -0.161340 )     1.16245937
  WF centre and spread   22  (  1.408005,  4.211290, -0.170597 )     6.61349392
  WF centre and spread   23  (  1.411325,  4.216622, -0.163970 )     6.61998417
  WF centre and spread   24  (  1.403484,  1.403533,  0.161338 )     1.16215014
  WF centre and spread   25  (  1.418557,  1.408517,  0.153073 )     6.63362139
  WF centre and spread   26  (  1.416389,  1.408942,  0.144666 )     6.62623137
  WF centre and spread   27  (  4.210497,  1.403485,  3.806698 )     1.16072294
  WF centre and spread   28  (  4.210653,  1.407022,  3.817872 )     6.99059507
  WF centre and spread   29  (  4.209686,  1.403581,  3.828533 )     6.90988916
  WF centre and spread   30  (  4.210483,  4.210472,  4.132662 )     1.16106525
  WF centre and spread   31  (  4.210926,  4.210277,  4.125161 )     6.89397774
  WF centre and spread   32  (  4.207209,  4.212545,  4.116507 )     6.85672353
  WF centre and spread   33  (  4.210525,  1.403507,  0.161309 )     1.16173588
  WF centre and spread   34  (  4.214609,  1.408735,  0.139453 )     6.72633424
  WF centre and spread   35  (  4.213229,  1.406941,  0.132948 )     6.69138215
  WF centre and spread   36  (  4.210520,  4.210428, -0.161294 )     1.16195748
  WF centre and spread   37  (  4.217172,  4.215719, -0.160905 )     6.73323636
  WF centre and spread   38  (  4.215411,  4.215310, -0.156166 )     6.70329114
  WF centre and spread   39  (  1.403477,  4.210454,  4.132716 )     1.16211393
  WF centre and spread   40  (  1.407803,  4.211009,  4.124731 )     6.83236301
  WF centre and spread   41  (  1.410625,  4.215083,  4.116699 )     6.79778465
  WF centre and spread   42  (  1.403465,  1.403516,  3.806650 )     1.16156365
  WF centre and spread   43  (  1.407826,  1.407130,  3.820014 )     6.95029132
  WF centre and spread   44  (  1.406661,  1.406106,  3.829035 )     6.89728365
  WF centre and spread   45  (  0.006455, -0.191505,  2.002544 )    11.45128613
  WF centre and spread   46  ( -0.000154, -0.201454,  1.984776 )     1.13430212
  WF centre and spread   47  (  0.000012, -0.244782,  1.984840 )     1.18303343
  WF centre and spread   48  (  0.000876,  0.207062,  5.953062 )    11.47377031
  WF centre and spread   49  ( -0.000163,  0.201375,  5.954518 )     1.13444001
  WF centre and spread   50  (  0.000099,  0.244925,  5.954470 )     1.18172501
  WF centre and spread   51  (  2.800068,  2.601547,  5.911431 )    11.36167370
  WF centre and spread   52  (  2.807241,  2.605564,  5.954496 )     1.13202635
  WF centre and spread   53  (  2.807083,  2.562024,  5.954497 )     1.18210056
  WF centre and spread   54  (  2.806844,  3.006552,  1.982271 )    11.40104555
  WF centre and spread   55  (  2.807238,  3.008497,  1.984791 )     1.13246361
  WF centre and spread   56  (  2.807005,  3.051605,  1.984833 )     1.18561541
  Sum of centres and spreads (112.732130,112.573209,134.602909 )   489.20328195

      0     0.489E+03     0.0000000000      489.2032819454       0.00  <-- CONV
        O_D=      9.3877013 O_OD=    322.2384338 O_TOT=    489.2032819 <-- SPRD
 ------------------------------------------------------------------------------
 Cycle:      1
  WF centre and spread    1  (  0.001772,  0.001753,  0.000362 )     2.17640622
  WF centre and spread    2  ( -0.000076,  0.000277, -0.002313 )     2.18369711
  WF centre and spread    3  ( -0.000134, -0.000192, -0.000177 )     1.40077454
  WF centre and spread    4  (  0.000422,  0.001348,  3.970394 )     2.23447538
  WF centre and spread    5  (  0.000022, -0.000029,  3.969141 )     2.22733502
  WF centre and spread    6  ( -0.000129,  0.000097,  3.969683 )     1.40584710
  WF centre and spread    7  (  2.808515,  2.808021,  3.967201 )     2.22505225
  WF centre and spread    8  (  2.806297,  2.807725,  3.967465 )     2.22081502
  WF centre and spread    9  (  2.807171,  2.806813,  3.969555 )     1.40942937
  WF centre and spread   10  (  2.806193,  2.806759, -0.003456 )     2.17040368
  WF centre and spread   11  (  2.807237,  2.807622, -0.005444 )     2.18451231
  WF centre and spread   12  (  2.806944,  2.806837, -0.000123 )     1.39896978
  WF centre and spread   13  (  0.004736,  0.043438, -0.000087 )    32.16276442
  WF centre and spread   14  (  0.118051,  0.078346, -0.247613 )    35.42781457
  WF centre and spread   15  (  0.037463,  0.089856,  3.977965 )    35.52077543
  WF centre and spread   16  (  0.037105, -0.081162,  4.020788 )    37.04411490
  WF centre and spread   17  (  2.845817,  2.818496,  3.835085 )    34.15810721
  WF centre and spread   18  (  2.745544,  2.947552,  4.050993 )    36.89610911
  WF centre and spread   19  (  2.761764,  2.786749, -0.167032 )    33.53577279
  WF centre and spread   20  (  2.860346,  2.931144, -0.186442 )    35.22306502
  WF centre and spread   21  (  1.403361,  4.210528, -0.163422 )     1.14581067
  WF centre and spread   22  (  1.406060,  4.211590, -0.171982 )     4.73056052
  WF centre and spread   23  (  1.412494,  4.222165, -0.167697 )     4.77786548
  WF centre and spread   24  (  1.403443,  1.403644,  0.163226 )     1.15003724
  WF centre and spread   25  (  1.416644,  1.409273,  0.141668 )     4.66914039
  WF centre and spread   26  (  1.412767,  1.408432,  0.134553 )     4.74558352
  WF centre and spread   27  (  4.210521,  1.403355,  3.804182 )     1.14806515
  WF centre and spread   28  (  4.207538,  1.406885,  3.814055 )     4.91738565
  WF centre and spread   29  (  4.205755,  1.402481,  3.826720 )     4.87880989
  WF centre and spread   30  (  4.210385,  4.210425,  4.134492 )     1.15420018
  WF centre and spread   31  (  4.214238,  4.212338,  4.132543 )     4.84433149
  WF centre and spread   32  (  4.209690,  4.215707,  4.122816 )     4.85240636
  WF centre and spread   33  (  4.210570,  1.403463,  0.163302 )     1.14623529
  WF centre and spread   34  (  4.209856,  1.408737,  0.127996 )     4.75995106
  WF centre and spread   35  (  4.209191,  1.407917,  0.123648 )     4.73771049
  WF centre and spread   36  (  4.210453,  4.210268, -0.163581 )     1.15032988
  WF centre and spread   37  (  4.213119,  4.219731, -0.163746 )     4.73243623
  WF centre and spread   38  (  4.210940,  4.219879, -0.158853 )     4.75151433
  WF centre and spread   39  (  1.403339,  4.210521,  4.135032 )     1.15328209
  WF centre and spread   40  (  1.404350,  4.208037,  4.129219 )     4.71366835
  WF centre and spread   41  (  1.409234,  4.213800,  4.119585 )     4.77435519
  WF centre and spread   42  (  1.403474,  1.403639,  3.803916 )     1.15200600
  WF centre and spread   43  (  1.409578,  1.409688,  3.818293 )     4.83532570
  WF centre and spread   44  (  1.408813,  1.405258,  3.828207 )     4.81383558
  WF centre and spread   45  (  0.007363, -0.194339,  1.989336 )     8.39953141
  WF centre and spread   46  ( -0.000413, -0.202711,  1.984504 )     1.10001143
  WF centre and spread   47  (  0.000032, -0.246277,  1.984520 )     1.14590218
  WF centre and spread   48  ( -0.002206,  0.212301,  5.935426 )     8.55930891
  WF centre and spread   49  ( -0.000414,  0.202546,  5.954841 )     1.10128794
  WF centre and spread   50  (  0.000237,  0.246407,  5.954796 )     1.14375563
  WF centre and spread   51  (  2.803688,  2.593738,  5.888463 )     8.52059472
  WF centre and spread   52  (  2.807343,  2.604472,  5.954812 )     1.09966683
  WF centre and spread   53  (  2.807038,  2.560532,  5.954813 )     1.14622805
  WF centre and spread   54  (  2.809348,  3.022201,  1.972790 )     8.48123194
  WF centre and spread   55  (  2.807349,  3.009593,  1.984493 )     1.09889334
  WF centre and spread   56  (  2.806902,  3.052594,  1.984604 )     1.14964139
  Sum of centres and spreads (112.517140,112.760271,134.163512 )   431.88714173

      1    -0.573E+02    12.9928412820      431.8871417284       0.10  <-- CONV
        O_D=     19.6063616 O_OD=    254.7036332 O_TOT=    431.8871417 <-- SPRD
 Delta: O_D=  0.1021866E+02 O_OD= -0.6753480E+02 O_TOT= -0.5731614E+02 <-- DLTA
 ------------------------------------------------------------------------------
 Cycle:    200
  WF centre and spread    1  ( -0.000073,  0.000695,  0.000807 )     1.38336332
  WF centre and spread    2  ( -0.000048,  0.000693,  0.000348 )     1.38143473
  WF centre and spread    3  ( -0.000040, -0.000506, -0.000297 )     1.32759646
  WF centre and spread    4  (  0.000227, -0.000382,  3.968859 )     1.39352358
  WF centre and spread    5  ( -0.001001,  0.000415,  3.967671 )     1.38940175
  WF centre and spread    6  (  0.000012,  0.000751,  3.969244 )     1.33533332
  WF centre and spread    7  (  2.807259,  2.806613,  3.971111 )     1.38680590
  WF centre and spread    8  (  2.806403,  2.807311,  3.970771 )     1.38812777
  WF centre and spread    9  (  2.806847,  2.806657,  3.969377 )     1.33410452
  WF centre and spread   10  (  2.806394,  2.806840,  0.000368 )     1.38354108
  WF centre and spread   11  (  2.807228,  2.805926,  0.000543 )     1.38530604
  WF centre and spread   12  (  2.807339,  2.805904,  0.000163 )     1.33005630
  WF centre and spread   13  (  0.382850,  0.686281, -0.320403 )    23.18233158
  WF centre and spread   14  (  0.196532, -0.221290, -0.500953 )    27.42922946
  WF centre and spread   15  ( -0.005632,  0.655105,  3.373454 )    25.20076056
  WF centre and spread   16  (  0.307759, -0.203019,  4.247848 )    27.63227865
  WF centre and spread   17  (  3.124129,  2.925135,  3.832633 )    27.00298895
  WF centre and spread   18  (  2.393821,  2.486592,  3.971591 )    26.68963716
  WF centre and spread   19  (  3.103305,  2.539696, -0.528900 )    30.15145869
  WF centre and spread   20  (  2.799452,  3.358057, -0.260843 )    24.01989724
  WF centre and spread   21  (  1.403244,  4.210771, -0.164389 )     1.07538838
  WF centre and spread   22  (  1.395825,  4.201261, -0.144457 )     1.32322657
  WF centre and spread   23  (  1.408131,  4.218504, -0.143129 )     1.31656240
  WF centre and spread   24  (  1.403403,  1.403399,  0.160895 )     1.07635477
  WF centre and spread   25  (  1.399667,  1.409703,  0.140104 )     1.31354275
  WF centre and spread   26  (  1.403904,  1.400962,  0.139724 )     1.33323367
  WF centre and spread   27  (  4.210448,  1.403625,  3.797560 )     1.08113957
  WF centre and spread   28  (  4.209338,  1.403322,  3.825600 )     1.33658095
  WF centre and spread   29  (  4.213043,  1.404074,  3.827380 )     1.31454152
  WF centre and spread   30  (  4.210596,  4.210583,  4.130589 )     1.06438691
  WF centre and spread   31  (  4.212350,  4.213365,  4.113034 )     1.35078166
  WF centre and spread   32  (  4.209683,  4.210154,  4.110781 )     1.33086812
  WF centre and spread   33  (  4.209993,  1.403728,  0.171029 )     1.08943153
  WF centre and spread   34  (  4.212303,  1.397619,  0.139567 )     1.32756054
  WF centre and spread   35  (  4.211351,  1.403211,  0.138919 )     1.32135444
  WF centre and spread   36  (  4.210321,  4.210603, -0.169682 )     1.09391210
  WF centre and spread   37  (  4.213956,  4.223565, -0.141679 )     1.32194404
  WF centre and spread   38  (  4.216185,  4.218305, -0.142303 )     1.32423704
  WF centre and spread   39  (  1.403334,  4.210574,  4.132752 )     1.07220857
  WF centre and spread   40  (  1.396007,  4.208076,  4.113200 )     1.33865077
  WF centre and spread   41  (  1.407161,  4.217702,  4.111611 )     1.32448842
  WF centre and spread   42  (  1.403496,  1.403633,  3.798420 )     1.07377257
  WF centre and spread   43  (  1.401109,  1.401206,  3.827920 )     1.33176757
  WF centre and spread   44  (  1.400444,  1.397773,  3.827936 )     1.30281636
  WF centre and spread   45  (  0.005362, -0.164496,  1.969495 )     1.78988314
  WF centre and spread   46  (  0.001540, -0.205005,  1.985212 )     1.05759730
  WF centre and spread   47  (  0.000504, -0.251642,  1.985062 )     1.07145782
  WF centre and spread   48  (  0.003097,  0.178504,  5.945443 )     1.76586071
  WF centre and spread   49  ( -0.001151,  0.206019,  5.954507 )     1.05612831
  WF centre and spread   50  (  0.000251,  0.248447,  5.955140 )     1.06676667
  WF centre and spread   51  (  2.811732,  2.629925,  5.948353 )     1.79023405
  WF centre and spread   52  (  2.809653,  2.603093,  5.954836 )     1.05145909
  WF centre and spread   53  (  2.808647,  2.560037,  5.954575 )     1.06460076
  WF centre and spread   54  (  2.813191,  2.985547,  1.974087 )     1.79772956
  WF centre and spread   55  (  2.805770,  3.009938,  1.985035 )     1.04104992
  WF centre and spread   56  (  2.807885,  3.048581,  1.985125 )     1.05693261
  Sum of centres and spreads (113.374531,113.302142,132.831641 )   273.17562820

    200     0.198E+00    19.6930162518      273.1756282017      18.43  <-- CONV
        O_D=      4.5258484 O_OD=    111.0726329 O_TOT=    273.1756282 <-- SPRD
 Delta: O_D=  0.1890276E+00 O_OD=  0.9177216E-02 O_TOT=  0.1982049E+00 <-- DLTA
 ------------------------------------------------------------------------------
 Cycle:    400
  WF centre and spread    1  ( -0.000128,  0.000522,  0.000700 )     1.37824270
  WF centre and spread    2  ( -0.000037,  0.000626,  0.000380 )     1.37701307
  WF centre and spread    3  ( -0.000031, -0.000433, -0.000286 )     1.32835903
  WF centre and spread    4  (  0.000204, -0.000411,  3.968826 )     1.38729417
  WF centre and spread    5  ( -0.000950,  0.000352,  3.967860 )     1.38276539
  WF centre and spread    6  (  0.000037,  0.000846,  3.969212 )     1.33575239
  WF centre and spread    7  (  2.807174,  2.806588,  3.971004 )     1.38053596
  WF centre and spread    8  (  2.806452,  2.807221,  3.970824 )     1.38275534
  WF centre and spread    9  (  2.806822,  2.806625,  3.969396 )     1.33468877
  WF centre and spread   10  (  2.806379,  2.806813,  0.000397 )     1.37802334
  WF centre and spread   11  (  2.807074,  2.806034,  0.000536 )     1.38042778
  WF centre and spread   12  (  2.807305,  2.805859,  0.000132 )     1.33101245
  WF centre and spread   13  (  0.444131,  0.768490, -0.355827 )    23.03412624
  WF centre and spread   14  (  0.167079, -0.251866, -0.502809 )    27.15541799
  WF centre and spread   15  ( -0.022722,  0.730227,  3.315905 )    25.10588309
  WF centre and spread   16  (  0.297673, -0.262369,  4.230330 )    27.59302826
  WF centre and spread   17  (  3.146901,  2.959838,  3.861534 )    26.91946054
  WF centre and spread   18  (  2.432357,  2.439815,  3.956113 )    25.79429927
  WF centre and spread   19  (  3.162028,  2.500204, -0.552563 )    30.25204174
  WF centre and spread   20  (  2.787104,  3.357657, -0.244910 )    23.00068166
  WF centre and spread   21  (  1.403259,  4.210748, -0.164274 )     1.07440817
  WF centre and spread   22  (  1.395422,  4.201621, -0.144429 )     1.31692491
  WF centre and spread   23  (  1.407827,  4.219048, -0.142981 )     1.30463677
  WF centre and spread   24  (  1.403388,  1.403344,  0.161025 )     1.07578599
  WF centre and spread   25  (  1.399314,  1.409193,  0.140140 )     1.30471943
  WF centre and spread   26  (  1.403697,  1.400153,  0.139764 )     1.32242821
  WF centre and spread   27  (  4.210449,  1.403651,  3.797603 )     1.07931140
  WF centre and spread   28  (  4.209819,  1.402467,  3.825726 )     1.32625585
  WF centre and spread   29  (  4.213620,  1.402626,  3.827397 )     1.30343329
  WF centre and spread   30  (  4.210581,  4.210589,  4.130651 )     1.06290635
  WF centre and spread   31  (  4.213305,  4.214015,  4.112727 )     1.34045003
  WF centre and spread   32  (  4.210079,  4.210347,  4.110724 )     1.32196327
  WF centre and spread   33  (  4.210011,  1.403786,  0.170693 )     1.08762291
  WF centre and spread   34  (  4.212696,  1.397198,  0.139621 )     1.31999927
  WF centre and spread   35  (  4.211329,  1.402905,  0.139087 )     1.31407776
  WF centre and spread   36  (  4.210256,  4.210584, -0.168996 )     1.09291061
  WF centre and spread   37  (  4.214096,  4.224154, -0.141660 )     1.31532810
  WF centre and spread   38  (  4.216763,  4.218449, -0.142224 )     1.31542327
  WF centre and spread   39  (  1.403322,  4.210571,  4.132024 )     1.07077097
  WF centre and spread   40  (  1.395059,  4.208622,  4.113037 )     1.32812238
  WF centre and spread   41  (  1.406465,  4.218408,  4.111494 )     1.30959872
  WF centre and spread   42  (  1.403500,  1.403635,  3.798903 )     1.07167196
  WF centre and spread   43  (  1.400702,  1.400710,  3.828200 )     1.31652910
  WF centre and spread   44  (  1.400045,  1.397108,  3.828136 )     1.28876021
  WF centre and spread   45  (  0.004936, -0.165552,  1.966575 )     1.72344896
  WF centre and spread   46  (  0.001405, -0.204824,  1.985208 )     1.05717174
  WF centre and spread   47  (  0.000519, -0.251334,  1.985065 )     1.07097554
  WF centre and spread   48  (  0.002682,  0.178080,  5.948598 )     1.69937294
  WF centre and spread   49  ( -0.001342,  0.205901,  5.954506 )     1.05566673
  WF centre and spread   50  (  0.000165,  0.248113,  5.955145 )     1.06535099
  WF centre and spread   51  (  2.811479,  2.629953,  5.951085 )     1.72016739
  WF centre and spread   52  (  2.809295,  2.603212,  5.954822 )     1.05115147
  WF centre and spread   53  (  2.808593,  2.560344,  5.954622 )     1.06283216
  WF centre and spread   54  (  2.812818,  2.985720,  1.971295 )     1.74189205
  WF centre and spread   55  (  2.805416,  3.009894,  1.985106 )     1.04062449
  WF centre and spread   56  (  2.807902,  3.048516,  1.985168 )     1.05656782
  Sum of centres and spreads (113.483724,113.314593,132.726336 )   270.24107037

    400    -0.338E-02     9.8972014370      270.2410703713      36.93  <-- CONV
        O_D=      4.0717429 O_OD=    108.5921806 O_TOT=    270.2410704 <-- SPRD
 Delta: O_D= -0.7642297E-03 O_OD= -0.2617826E-02 O_TOT= -0.3382055E-02 <-- DLTA
 ------------------------------------------------------------------------------
 Cycle:    600
  WF centre and spread    1  ( -0.000158,  0.000406,  0.000620 )     1.37559828
  WF centre and spread    2  ( -0.000025,  0.000581,  0.000399 )     1.37486267
  WF centre and spread    3  ( -0.000027, -0.000372, -0.000272 )     1.32888880
  WF centre and spread    4  (  0.000186, -0.000428,  3.968796 )     1.38357376
  WF centre and spread    5  ( -0.000903,  0.000303,  3.967984 )     1.37879178
  WF centre and spread    6  (  0.000050,  0.000916,  3.969190 )     1.33599039
  WF centre and spread    7  (  2.807120,  2.806577,  3.970916 )     1.37689538
  WF centre and spread    8  (  2.806482,  2.807166,  3.970856 )     1.37963347
  WF centre and spread    9  (  2.806810,  2.806598,  3.969402 )     1.33516142
  WF centre and spread   10  (  2.806370,  2.806786,  0.000418 )     1.37479433
  WF centre and spread   11  (  2.806970,  2.806119,  0.000529 )     1.37747634
  WF centre and spread   12  (  2.807254,  2.805824,  0.000112 )     1.33170854
  WF centre and spread   13  (  0.489604,  0.815840, -0.382119 )    22.91823789
  WF centre and spread   14  (  0.156405, -0.275917, -0.501760 )    27.06655024
  WF centre and spread   15  ( -0.036603,  0.778112,  3.272848 )    25.08497816
  WF centre and spread   16  (  0.307060, -0.315991,  4.212333 )    27.57951214
  WF centre and spread   17  (  3.157481,  2.963416,  3.884511 )    26.71635844
  WF centre and spread   18  (  2.465955,  2.402294,  3.945066 )    25.14170448
  WF centre and spread   19  (  3.171327,  2.463139, -0.588759 )    30.43643123
  WF centre and spread   20  (  2.779820,  3.351015, -0.233696 )    22.39192156
  WF centre and spread   21  (  1.403263,  4.210715, -0.164216 )     1.07396023
  WF centre and spread   22  (  1.395185,  4.201973, -0.144451 )     1.31520375
  WF centre and spread   23  (  1.407601,  4.219485, -0.142919 )     1.29837188
  WF centre and spread   24  (  1.403373,  1.403314,  0.161141 )     1.07537532
  WF centre and spread   25  (  1.398953,  1.408583,  0.140184 )     1.30024690
  WF centre and spread   26  (  1.403467,  1.399420,  0.139815 )     1.31662376
  WF centre and spread   27  (  4.210446,  1.403671,  3.797774 )     1.07816511
  WF centre and spread   28  (  4.210262,  1.401886,  3.825801 )     1.32112636
  WF centre and spread   29  (  4.214116,  1.401501,  3.827410 )     1.29814757
  WF centre and spread   30  (  4.210569,  4.210579,  4.130631 )     1.06215329
  WF centre and spread   31  (  4.214113,  4.214379,  4.112550 )     1.33508163
  WF centre and spread   32  (  4.210403,  4.210544,  4.110688 )     1.31832311
  WF centre and spread   33  (  4.210029,  1.403818,  0.170392 )     1.08626775
  WF centre and spread   34  (  4.213096,  1.396859,  0.139664 )     1.31614982
  WF centre and spread   35  (  4.211353,  1.402593,  0.139206 )     1.31097887
  WF centre and spread   36  (  4.210211,  4.210576, -0.168528 )     1.09231267
  WF centre and spread   37  (  4.214296,  4.224608, -0.141684 )     1.31287317
  WF centre and spread   38  (  4.217239,  4.218601, -0.142186 )     1.31176205
  WF centre and spread   39  (  1.403315,  4.210566,  4.131570 )     1.07035429
  WF centre and spread   40  (  1.394348,  4.209054,  4.112912 )     1.32321202
  WF centre and spread   41  (  1.405975,  4.218949,  4.111430 )     1.30214317
  WF centre and spread   42  (  1.403510,  1.403634,  3.799170 )     1.07059508
  WF centre and spread   43  (  1.400419,  1.400253,  3.828348 )     1.30851384
  WF centre and spread   44  (  1.399795,  1.396512,  3.828216 )     1.28177323
  WF centre and spread   45  (  0.004607, -0.166356,  1.965476 )     1.68668735
  WF centre and spread   46  (  0.001263, -0.204683,  1.985207 )     1.05681141
  WF centre and spread   47  (  0.000501, -0.251114,  1.985080 )     1.07080967
  WF centre and spread   48  (  0.002391,  0.177781,  5.950021 )     1.66258561
  WF centre and spread   49  ( -0.001462,  0.205827,  5.954499 )     1.05529877
  WF centre and spread   50  (  0.000110,  0.247885,  5.955141 )     1.06461822
  WF centre and spread   51  (  2.811239,  2.629896,  5.953082 )     1.67741965
  WF centre and spread   52  (  2.809017,  2.603336,  5.954816 )     1.05083829
  WF centre and spread   53  (  2.808540,  2.560564,  5.954664 )     1.06169449
  WF centre and spread   54  (  2.812534,  2.985885,  1.969329 )     1.70873976
  WF centre and spread   55  (  2.805183,  3.009885,  1.985151 )     1.04036617
  WF centre and spread   56  (  2.807880,  3.048479,  1.985211 )     1.05643527
  Sum of centres and spreads (113.558319,113.251843,132.627968 )   268.46108885

    600    -0.277E-01     3.3442921803      268.4610888451      55.24  <-- CONV
        O_D=      3.9033781 O_OD=    106.9805639 O_TOT=    268.4610888 <-- SPRD
 Delta: O_D= -0.6023652E-02 O_OD= -0.2171057E-01 O_TOT= -0.2773422E-01 <-- DLTA
 ------------------------------------------------------------------------------
 Cycle:    800
  WF centre and spread    1  ( -0.000192,  0.000297,  0.000524 )     1.37352447
  WF centre and spread    2  ( -0.000022,  0.000539,  0.000421 )     1.37317829
  WF centre and spread    3  ( -0.000036, -0.000311, -0.000262 )     1.32940082
  WF centre and spread    4  (  0.000177, -0.000442,  3.968764 )     1.38038540
  WF centre and spread    5  ( -0.000847,  0.000254,  3.968101 )     1.37539947
  WF centre and spread    6  (  0.000053,  0.000982,  3.969172 )     1.33620666
  WF centre and spread    7  (  2.807076,  2.806567,  3.970826 )     1.37383176
  WF centre and spread    8  (  2.806509,  2.807122,  3.970876 )     1.37694173
  WF centre and spread    9  (  2.806788,  2.806572,  3.969406 )     1.33553604
  WF centre and spread   10  (  2.806376,  2.806766,  0.000424 )     1.37232107
  WF centre and spread   11  (  2.806875,  2.806202,  0.000514 )     1.37512275
  WF centre and spread   12  (  2.807185,  2.805797,  0.000088 )     1.33235145
  WF centre and spread   13  (  0.529614,  0.852375, -0.400744 )    22.86633783
  WF centre and spread   14  (  0.149964, -0.302354, -0.502210 )    27.02095216
  WF centre and spread   15  ( -0.047734,  0.825086,  3.226782 )    25.07606252
  WF centre and spread   16  (  0.313051, -0.347300,  4.192260 )    27.58450001
  WF centre and spread   17  (  3.165851,  2.978478,  3.900380 )    26.51749191
  WF centre and spread   18  (  2.503268,  2.371072,  3.932346 )    24.47119003
  WF centre and spread   19  (  3.188414,  2.439779, -0.633283 )    30.61618679
  WF centre and spread   20  (  2.773334,  3.337172, -0.223240 )    21.86565889
  WF centre and spread   21  (  1.403275,  4.210696, -0.164145 )     1.07354936
  WF centre and spread   22  (  1.394939,  4.202379, -0.144520 )     1.31452242
  WF centre and spread   23  (  1.407324,  4.219940, -0.142884 )     1.29394536
  WF centre and spread   24  (  1.403359,  1.403295,  0.161205 )     1.07503336
  WF centre and spread   25  (  1.398527,  1.407801,  0.140237 )     1.29704057
  WF centre and spread   26  (  1.403158,  1.398628,  0.139873 )     1.31202139
  WF centre and spread   27  (  4.210453,  1.403689,  3.798025 )     1.07674266
  WF centre and spread   28  (  4.210742,  1.401312,  3.825863 )     1.31630279
  WF centre and spread   29  (  4.214647,  1.400391,  3.827422 )     1.29407073
  WF centre and spread   30  (  4.210547,  4.210572,  4.130583 )     1.06147694
  WF centre and spread   31  (  4.215103,  4.214825,  4.112403 )     1.33058986
  WF centre and spread   32  (  4.210855,  4.210853,  4.110664 )     1.31522843
  WF centre and spread   33  (  4.210050,  1.403844,  0.170058 )     1.08499465
  WF centre and spread   34  (  4.213552,  1.396462,  0.139711 )     1.31392480
  WF centre and spread   35  (  4.211460,  1.402244,  0.139306 )     1.30933914
  WF centre and spread   36  (  4.210170,  4.210575, -0.168143 )     1.09179266
  WF centre and spread   37  (  4.214612,  4.225065, -0.141740 )     1.31180169
  WF centre and spread   38  (  4.217780,  4.218743, -0.142168 )     1.30927505
  WF centre and spread   39  (  1.403308,  4.210561,  4.131212 )     1.06975998
  WF centre and spread   40  (  1.393520,  4.209640,  4.112785 )     1.31949358
  WF centre and spread   41  (  1.405414,  4.219581,  4.111343 )     1.29611054
  WF centre and spread   42  (  1.403517,  1.403638,  3.799398 )     1.06950614
  WF centre and spread   43  (  1.400093,  1.399738,  3.828462 )     1.30194392
  WF centre and spread   44  (  1.399517,  1.395851,  3.828295 )     1.27576241
  WF centre and spread   45  (  0.004234, -0.167196,  1.964651 )     1.65257713
  WF centre and spread   46  (  0.001064, -0.204534,  1.985197 )     1.05639167
  WF centre and spread   47  (  0.000474, -0.250880,  1.985083 )     1.07035465
  WF centre and spread   48  (  0.002085,  0.177447,  5.951298 )     1.62954130
  WF centre and spread   49  ( -0.001563,  0.205758,  5.954493 )     1.05494428
  WF centre and spread   50  (  0.000047,  0.247668,  5.955129 )     1.06382036
  WF centre and spread   51  (  2.810983,  2.629931,  5.954747 )     1.63799569
  WF centre and spread   52  (  2.808741,  2.603476,  5.954802 )     1.05051817
  WF centre and spread   53  (  2.808461,  2.560803,  5.954712 )     1.06044423
  WF centre and spread   54  (  2.812212,  2.986042,  1.967644 )     1.67977942
  WF centre and spread   55  (  2.804921,  3.009887,  1.985196 )     1.04008305
  WF centre and spread   56  (  2.807840,  3.048472,  1.985247 )     1.05614442
  Sum of centres and spreads (113.641122,113.221848,132.512590 )   266.91940286

    800    -0.817E-02    10.7723536138      266.9194028646      73.64  <-- CONV
        O_D=      3.8211637 O_OD=    105.5210923 O_TOT=    266.9194029 <-- SPRD
 Delta: O_D=  0.9788336E-02 O_OD= -0.1795838E-01 O_TOT= -0.8170042E-02 <-- DLTA
 ------------------------------------------------------------------------------
 Cycle:   1000
  WF centre and spread    1  ( -0.000217,  0.000195,  0.000433 )     1.37206022
  WF centre and spread    2  ( -0.000018,  0.000498,  0.000438 )     1.37203420
  WF centre and spread    3  ( -0.000054, -0.000246, -0.000254 )     1.32989761
  WF centre and spread    4  (  0.000162, -0.000459,  3.968732 )     1.37772418
  WF centre and spread    5  ( -0.000786,  0.000208,  3.968217 )     1.37257713
  WF centre and spread    6  (  0.000042,  0.001045,  3.969158 )     1.33642242
  WF centre and spread    7  (  2.807036,  2.806561,  3.970734 )     1.37142337
  WF centre and spread    8  (  2.806535,  2.807087,  3.970887 )     1.37469047
  WF centre and spread    9  (  2.806761,  2.806547,  3.969409 )     1.33598822
  WF centre and spread   10  (  2.806386,  2.806753,  0.000438 )     1.37040330
  WF centre and spread   11  (  2.806788,  2.806285,  0.000490 )     1.37320321
  WF centre and spread   12  (  2.807088,  2.805782,  0.000068 )     1.33296793
  WF centre and spread   13  (  0.563465,  0.879428, -0.423965 )    22.87692263
  WF centre and spread   14  (  0.165324, -0.331384, -0.503521 )    27.07325461
  WF centre and spread   15  ( -0.064218,  0.869712,  3.181899 )    25.09746540
  WF centre and spread   16  (  0.319051, -0.390465,  4.172238 )    27.50861113
  WF centre and spread   17  (  3.172718,  2.995405,  3.918188 )    26.24809883
  WF centre and spread   18  (  2.543107,  2.341395,  3.925769 )    23.77526675
  WF centre and spread   19  (  3.177791,  2.409430, -0.668555 )    30.76290865
  WF centre and spread   20  (  2.772551,  3.320202, -0.211230 )    21.39972857
  WF centre and spread   21  (  1.403276,  4.210668, -0.164089 )     1.07354059
  WF centre and spread   22  (  1.394638,  4.202904, -0.144589 )     1.31489526
  WF centre and spread   23  (  1.406954,  4.220437, -0.142859 )     1.29111813
  WF centre and spread   24  (  1.403345,  1.403285,  0.161277 )     1.07487664
  WF centre and spread   25  (  1.398025,  1.406929,  0.140296 )     1.29494418
  WF centre and spread   26  (  1.402784,  1.397754,  0.139938 )     1.30831952
  WF centre and spread   27  (  4.210467,  1.403707,  3.798397 )     1.07529314
  WF centre and spread   28  (  4.211267,  1.400948,  3.825936 )     1.31534031
  WF centre and spread   29  (  4.215183,  1.399271,  3.827460 )     1.29269019
  WF centre and spread   30  (  4.210519,  4.210562,  4.130527 )     1.06099468
  WF centre and spread   31  (  4.216060,  4.215027,  4.112274 )     1.33176722
  WF centre and spread   32  (  4.211347,  4.211209,  4.110662 )     1.31489933
  WF centre and spread   33  (  4.210070,  1.403864,  0.169668 )     1.08388050
  WF centre and spread   34  (  4.214059,  1.395986,  0.139777 )     1.31299718
  WF centre and spread   35  (  4.211702,  1.401797,  0.139412 )     1.30950680
  WF centre and spread   36  (  4.210132,  4.210570, -0.167809 )     1.09159528
  WF centre and spread   37  (  4.215028,  4.225521, -0.141809 )     1.31135071
  WF centre and spread   38  (  4.218441,  4.218943, -0.142145 )     1.30862249
  WF centre and spread   39  (  1.403300,  4.210559,  4.130955 )     1.06948357
  WF centre and spread   40  (  1.392707,  4.210169,  4.112661 )     1.32120827
  WF centre and spread   41  (  1.404899,  4.220160,  4.111287 )     1.29417567
  WF centre and spread   42  (  1.403522,  1.403636,  3.799618 )     1.06856876
  WF centre and spread   43  (  1.399849,  1.399326,  3.828523 )     1.29951692
  WF centre and spread   44  (  1.399268,  1.395144,  3.828334 )     1.27215151
  WF centre and spread   45  (  0.003833, -0.168051,  1.964347 )     1.62373445
  WF centre and spread   46  (  0.000848, -0.204393,  1.985179 )     1.05620850
  WF centre and spread   47  (  0.000436, -0.250639,  1.985095 )     1.07010937
  WF centre and spread   48  (  0.001749,  0.177127,  5.952266 )     1.60205716
  WF centre and spread   49  ( -0.001640,  0.205700,  5.954501 )     1.05484593
  WF centre and spread   50  ( -0.000012,  0.247473,  5.955114 )     1.06327231
  WF centre and spread   51  (  2.810729,  2.629935,  5.956511 )     1.60485624
  WF centre and spread   52  (  2.808445,  2.603637,  5.954784 )     1.05027270
  WF centre and spread   53  (  2.808366,  2.561035,  5.954759 )     1.05933738
  WF centre and spread   54  (  2.811907,  2.986243,  1.966118 )     1.65658555
  WF centre and spread   55  (  2.804681,  3.009900,  1.985240 )     1.04005158
  WF centre and spread   56  (  2.807778,  3.048461,  1.985285 )     1.05604615
  Sum of centres and spreads (113.713474,113.158784,132.412470 )   265.49076297

   1000    -0.119E-01     3.7419134909      265.4907629676      91.90  <-- CONV
        O_D=      3.6577987 O_OD=    104.2558174 O_TOT=    265.4907630 <-- SPRD
 Delta: O_D= -0.6896433E-02 O_OD= -0.4984397E-02 O_TOT= -0.1188083E-01 <-- DLTA
 ------------------------------------------------------------------------------
 Cycle:   1200
  WF centre and spread    1  ( -0.000229,  0.000114,  0.000351 )     1.37062075
  WF centre and spread    2  ( -0.000012,  0.000442,  0.000459 )     1.37075800
  WF centre and spread    3  ( -0.000084, -0.000187, -0.000244 )     1.33039259
  WF centre and spread    4  (  0.000150, -0.000469,  3.968699 )     1.37533396
  WF centre and spread    5  ( -0.000714,  0.000159,  3.968330 )     1.37010740
  WF centre and spread    6  (  0.000020,  0.001106,  3.969146 )     1.33653260
  WF centre and spread    7  (  2.807000,  2.806555,  3.970655 )     1.36912833
  WF centre and spread    8  (  2.806556,  2.807062,  3.970897 )     1.37267421
  WF centre and spread    9  (  2.806727,  2.806528,  3.969411 )     1.33638040
  WF centre and spread   10  (  2.806408,  2.806741,  0.000447 )     1.36866632
  WF centre and spread   11  (  2.806721,  2.806373,  0.000468 )     1.37140163
  WF centre and spread   12  (  2.806979,  2.805787,  0.000048 )     1.33347606
  WF centre and spread   13  (  0.593673,  0.897672, -0.413934 )    22.86520584
  WF centre and spread   14  (  0.180401, -0.358014, -0.504877 )    27.18768542
  WF centre and spread   15  ( -0.080029,  0.913470,  3.140201 )    25.10232074
  WF centre and spread   16  (  0.317839, -0.437863,  4.158285 )    27.45020127
  WF centre and spread   17  (  3.176855,  3.010424,  3.935568 )    25.99109913
  WF centre and spread   18  (  2.584309,  2.323569,  3.917031 )    23.04969907
  WF centre and spread   19  (  3.167411,  2.394217, -0.708889 )    30.91486281
  WF centre and spread   20  (  2.770244,  3.300013, -0.199238 )    20.92764606
  WF centre and spread   21  (  1.403282,  4.210645, -0.164028 )     1.07342989
  WF centre and spread   22  (  1.394251,  4.203541, -0.144637 )     1.31497655
  WF centre and spread   23  (  1.406558,  4.220964, -0.142824 )     1.28860788
  WF centre and spread   24  (  1.403341,  1.403279,  0.161336 )     1.07464959
  WF centre and spread   25  (  1.397495,  1.405948,  0.140357 )     1.29290532
  WF centre and spread   26  (  1.402321,  1.396796,  0.140006 )     1.30493190
  WF centre and spread   27  (  4.210478,  1.403716,  3.798858 )     1.07340000
  WF centre and spread   28  (  4.211895,  1.400376,  3.826000 )     1.30721700
  WF centre and spread   29  (  4.215807,  1.398126,  3.827487 )     1.28798348
  WF centre and spread   30  (  4.210492,  4.210549,  4.130472 )     1.06053693
  WF centre and spread   31  (  4.217132,  4.215447,  4.112244 )     1.32397068
  WF centre and spread   32  (  4.211946,  4.211617,  4.110677 )     1.31032950
  WF centre and spread   33  (  4.210090,  1.403875,  0.169277 )     1.08286741
  WF centre and spread   34  (  4.214645,  1.395459,  0.139853 )     1.31181706
  WF centre and spread   35  (  4.212011,  1.401313,  0.139542 )     1.30867643
  WF centre and spread   36  (  4.210106,  4.210562, -0.167527 )     1.09118999
  WF centre and spread   37  (  4.215515,  4.226044, -0.141902 )     1.31142881
  WF centre and spread   38  (  4.219148,  4.219195, -0.142117 )     1.30837145
  WF centre and spread   39  (  1.403294,  4.210561,  4.130810 )     1.06898614
  WF centre and spread   40  (  1.391849,  4.210796,  4.112540 )     1.31465507
  WF centre and spread   41  (  1.404302,  4.220790,  4.111199 )     1.28766715
  WF centre and spread   42  (  1.403528,  1.403640,  3.799813 )     1.06742738
  WF centre and spread   43  (  1.399495,  1.398833,  3.828603 )     1.29212556
  WF centre and spread   44  (  1.398968,  1.394385,  3.828405 )     1.26657416
  WF centre and spread   45  (  0.003438, -0.168888,  1.964410 )     1.59757293
  WF centre and spread   46  (  0.000615, -0.204272,  1.985155 )     1.05510178
  WF centre and spread   47  (  0.000399, -0.250415,  1.985106 )     1.06954375
  WF centre and spread   48  (  0.001420,  0.176836,  5.953033 )     1.57813513
  WF centre and spread   49  ( -0.001685,  0.205626,  5.954512 )     1.05368946
  WF centre and spread   50  ( -0.000057,  0.247281,  5.955089 )     1.06254056
  WF centre and spread   51  (  2.810458,  2.629966,  5.958220 )     1.57504480
  WF centre and spread   52  (  2.808117,  2.603816,  5.954744 )     1.04960255
  WF centre and spread   53  (  2.808253,  2.561301,  5.954809 )     1.05810334
  WF centre and spread   54  (  2.811596,  2.986434,  1.964824 )     1.63454872
  WF centre and spread   55  (  2.804415,  3.009912,  1.985296 )     1.03978206
  WF centre and spread   56  (  2.807698,  3.048486,  1.985318 )     1.05545159
  Sum of centres and spreads (113.772839,113.106241,132.347773 )   264.04803459

   1200    -0.407E-02     4.2737308409      264.0480345924     110.54  <-- CONV
        O_D=      3.5095307 O_OD=    102.9613569 O_TOT=    264.0480346 <-- SPRD
 Delta: O_D= -0.1237234E-03 O_OD= -0.3950270E-02 O_TOT= -0.4073994E-02 <-- DLTA
 ------------------------------------------------------------------------------
 Cycle:   1400
  WF centre and spread    1  ( -0.000236,  0.000054,  0.000283 )     1.36989434
  WF centre and spread    2  ( -0.000005,  0.000400,  0.000471 )     1.37002690
  WF centre and spread    3  ( -0.000118, -0.000130, -0.000236 )     1.33085087
  WF centre and spread    4  (  0.000141, -0.000471,  3.968680 )     1.37369058
  WF centre and spread    5  ( -0.000647,  0.000121,  3.968422 )     1.36845698
  WF centre and spread    6  ( -0.000004,  0.001156,  3.969139 )     1.33667427
  WF centre and spread    7  (  2.806977,  2.806556,  3.970585 )     1.36770925
  WF centre and spread    8  (  2.806573,  2.807047,  3.970897 )     1.37132782
  WF centre and spread    9  (  2.806699,  2.806519,  3.969410 )     1.33678582
  WF centre and spread   10  (  2.806435,  2.806742,  0.000453 )     1.36768298
  WF centre and spread   11  (  2.806672,  2.806439,  0.000442 )     1.37029564
  WF centre and spread   12  (  2.806883,  2.805809,  0.000028 )     1.33387089
  WF centre and spread   13  (  0.616151,  0.908091, -0.409557 )    22.89090165
  WF centre and spread   14  (  0.179659, -0.380973, -0.506156 )    27.33271128
  WF centre and spread   15  ( -0.092641,  0.949495,  3.107654 )    25.13991610
  WF centre and spread   16  (  0.324377, -0.472467,  4.145174 )    27.41657251
  WF centre and spread   17  (  3.180665,  3.020604,  3.943616 )    25.74732972
  WF centre and spread   18  (  2.619110,  2.304956,  3.912541 )    22.42211488
  WF centre and spread   19  (  3.170740,  2.382431, -0.737016 )    31.02454096
  WF centre and spread   20  (  2.767706,  3.280367, -0.189341 )    20.56719606
  WF centre and spread   21  (  1.403287,  4.210630, -0.164011 )     1.07353715
  WF centre and spread   22  (  1.393877,  4.204155, -0.144695 )     1.31563894
  WF centre and spread   23  (  1.406159,  4.221394, -0.142813 )     1.28815360
  WF centre and spread   24  (  1.403334,  1.403284,  0.161358 )     1.07450284
  WF centre and spread   25  (  1.397022,  1.405084,  0.140405 )     1.29194464
  WF centre and spread   26  (  1.401886,  1.395941,  0.140073 )     1.30270657
  WF centre and spread   27  (  4.210482,  1.403717,  3.799288 )     1.07167766
  WF centre and spread   28  (  4.212479,  1.399965,  3.826049 )     1.30400538
  WF centre and spread   29  (  4.216339,  1.397108,  3.827508 )     1.28689098
  WF centre and spread   30  (  4.210469,  4.210540,  4.130439 )     1.06031995
  WF centre and spread   31  (  4.218045,  4.215778,  4.112204 )     1.32250849
  WF centre and spread   32  (  4.212538,  4.212074,  4.110686 )     1.30921784
  WF centre and spread   33  (  4.210113,  1.403890,  0.168926 )     1.08206193
  WF centre and spread   34  (  4.215161,  1.394950,  0.139922 )     1.31202475
  WF centre and spread   35  (  4.212372,  1.400873,  0.139642 )     1.30939966
  WF centre and spread   36  (  4.210080,  4.210554, -0.167358 )     1.09098197
  WF centre and spread   37  (  4.215952,  4.226483, -0.141987 )     1.31200914
  WF centre and spread   38  (  4.219771,  4.219436, -0.142100 )     1.30894224
  WF centre and spread   39  (  1.403292,  4.210557,  4.130755 )     1.06852766
  WF centre and spread   40  (  1.391084,  4.211415,  4.112443 )     1.31404670
  WF centre and spread   41  (  1.403768,  4.221405,  4.111147 )     1.28572809
  WF centre and spread   42  (  1.403528,  1.403642,  3.799965 )     1.06651619
  WF centre and spread   43  (  1.399172,  1.398425,  3.828615 )     1.28965690
  WF centre and spread   44  (  1.398693,  1.393659,  3.828440 )     1.26432622
  WF centre and spread   45  (  0.003117, -0.169547,  1.964472 )     1.57504952
  WF centre and spread   46  (  0.000404, -0.204181,  1.985120 )     1.05488467
  WF centre and spread   47  (  0.000364, -0.250242,  1.985119 )     1.06941820
  WF centre and spread   48  (  0.001182,  0.176607,  5.953553 )     1.56036702
  WF centre and spread   49  ( -0.001711,  0.205573,  5.954532 )     1.05331149
  WF centre and spread   50  ( -0.000095,  0.247122,  5.955068 )     1.06218150
  WF centre and spread   51  (  2.810219,  2.629945,  5.959580 )     1.55501836
  WF centre and spread   52  (  2.807841,  2.603981,  5.954689 )     1.04938937
  WF centre and spread   53  (  2.808148,  2.561497,  5.954849 )     1.05721571
  WF centre and spread   54  (  2.811374,  2.986600,  1.963825 )     1.62097632
  WF centre and spread   55  (  2.804216,  3.009933,  1.985351 )     1.04004241
  WF centre and spread   56  (  2.807627,  3.048501,  1.985342 )     1.05530657
  Sum of centres and spreads (113.826724,113.053491,132.291893 )   262.99703614

   1400    -0.127E-01     5.2143823905      262.9970361380     128.71  <-- CONV
        O_D=      3.4155085 O_OD=    102.0043807 O_TOT=    262.9970361 <-- SPRD
 Delta: O_D= -0.1220252E-01 O_OD= -0.4596738E-03 O_TOT= -0.1266219E-01 <-- DLTA
 ------------------------------------------------------------------------------
 Cycle:   1600
  WF centre and spread    1  ( -0.000237,  0.000008,  0.000222 )     1.36935614
  WF centre and spread    2  (  0.000007,  0.000359,  0.000475 )     1.36945035
  WF centre and spread    3  ( -0.000155, -0.000069, -0.000228 )     1.33128650
  WF centre and spread    4  (  0.000132, -0.000470,  3.968660 )     1.37230500
  WF centre and spread    5  ( -0.000580,  0.000086,  3.968504 )     1.36709978
  WF centre and spread    6  ( -0.000034,  0.001204,  3.969134 )     1.33676923
  WF centre and spread    7  (  2.806960,  2.806558,  3.970520 )     1.36650451
  WF centre and spread    8  (  2.806585,  2.807038,  3.970892 )     1.37015326
  WF centre and spread    9  (  2.806671,  2.806516,  3.969410 )     1.33714537
  WF centre and spread   10  (  2.806469,  2.806747,  0.000450 )     1.36688765
  WF centre and spread   11  (  2.806634,  2.806502,  0.000421 )     1.36936025
  WF centre and spread   12  (  2.806776,  2.805839,  0.000011 )     1.33423437
  WF centre and spread   13  (  0.633999,  0.913608, -0.398866 )    22.92486901
  WF centre and spread   14  (  0.190814, -0.405251, -0.506575 )    27.51561085
  WF centre and spread   15  ( -0.106240,  0.983853,  3.078503 )    25.15595507
  WF centre and spread   16  (  0.334626, -0.499803,  4.134099 )    27.37774555
  WF centre and spread   17  (  3.182866,  3.030119,  3.952632 )    25.54157057
  WF centre and spread   18  (  2.653112,  2.292067,  3.909363 )    21.81375916
  WF centre and spread   19  (  3.158450,  2.378859, -0.768229 )    31.11775644
  WF centre and spread   20  (  2.765999,  3.258363, -0.179831 )    20.20802861
  WF centre and spread   21  (  1.403291,  4.210615, -0.163986 )     1.07345253
  WF centre and spread   22  (  1.393471,  4.204834, -0.144729 )     1.31625521
  WF centre and spread   23  (  1.405724,  4.221820, -0.142797 )     1.28803365
  WF centre and spread   24  (  1.403333,  1.403289,  0.161366 )     1.07443640
  WF centre and spread   25  (  1.396523,  1.404211,  0.140450 )     1.29117019
  WF centre and spread   26  (  1.401418,  1.395081,  0.140136 )     1.30077087
  WF centre and spread   27  (  4.210485,  1.403715,  3.799743 )     1.07013445
  WF centre and spread   28  (  4.213097,  1.399517,  3.826108 )     1.29979504
  WF centre and spread   29  (  4.216903,  1.396100,  3.827544 )     1.28530448
  WF centre and spread   30  (  4.210447,  4.210532,  4.130407 )     1.06014893
  WF centre and spread   31  (  4.218960,  4.216191,  4.112189 )     1.32078080
  WF centre and spread   32  (  4.213200,  4.212594,  4.110706 )     1.30792980
[...]
  WF centre and spread   13  (  0.585976,  0.571703, -0.609048 )    23.61888429
  WF centre and spread   14  ( -0.506875, -1.214212, -0.674524 )    34.36332477
  WF centre and spread   15  ( -0.462058,  1.739713,  2.383154 )    23.13165432
  WF centre and spread   16  (  1.777215, -0.495011,  4.562256 )    26.76675016
  WF centre and spread   17  (  2.951960,  2.585943,  3.880318 )    20.53468559
  WF centre and spread   18  (  2.929561,  2.661873,  3.978693 )    12.83854529
  WF centre and spread   19  (  2.498941,  2.037245, -0.994376 )    29.83965199
  WF centre and spread   20  (  2.795050,  2.856287, -0.007303 )    12.43968603
  WF centre and spread   21  (  1.403251,  4.210406, -0.162013 )     1.07199567
  WF centre and spread   22  (  1.375038,  4.235066, -0.142932 )     1.29882545
  WF centre and spread   23  (  1.379436,  4.236542, -0.141958 )     1.29505041
  WF centre and spread   24  (  1.403452,  1.403479,  0.163440 )     1.06388767
  WF centre and spread   25  (  1.382538,  1.382989,  0.142069 )     1.29725314
  WF centre and spread   26  (  1.379843,  1.371082,  0.141555 )     1.29761517
  WF centre and spread   27  (  4.210292,  1.403487,  3.805729 )     1.06115308
  WF centre and spread   28  (  4.246554,  1.374321,  3.828129 )     1.30065667
  WF centre and spread   29  (  4.243262,  1.363257,  3.828608 )     1.30684079
  WF centre and spread   30  (  4.210409,  4.210685,  4.128909 )     1.06046875
  WF centre and spread   31  (  4.242622,  4.237722,  4.112244 )     1.35092200
  WF centre and spread   32  (  4.238682,  4.237943,  4.111507 )     1.32589144
  WF centre and spread   33  (  4.210548,  1.403740,  0.164405 )     1.07279690
  WF centre and spread   34  (  4.231297,  1.382263,  0.141501 )     1.29417200
  WF centre and spread   35  (  4.228635,  1.385204,  0.141335 )     1.30140337
  WF centre and spread   36  (  4.210340,  4.210566, -0.161986 )     1.07117763
  WF centre and spread   37  (  4.233494,  4.238668, -0.142409 )     1.31541917
  WF centre and spread   38  (  4.240038,  4.236650, -0.141681 )     1.31381671
  WF centre and spread   39  (  1.403325,  4.210295,  4.131840 )     1.05620921
  WF centre and spread   40  (  1.374586,  4.234598,  4.112578 )     1.32546430
  WF centre and spread   41  (  1.380130,  4.242475,  4.111264 )     1.32037287
  WF centre and spread   42  (  1.403635,  1.403764,  3.801106 )     1.06236931
  WF centre and spread   43  (  1.368868,  1.371496,  3.827259 )     1.32141175
  WF centre and spread   44  (  1.373266,  1.360212,  3.828369 )     1.31689410
  WF centre and spread   45  (  0.000146, -0.177142,  1.991100 )     1.40304765
  WF centre and spread   46  ( -0.001747, -0.203646,  1.984659 )     1.03885021
  WF centre and spread   47  ( -0.000843, -0.248484,  1.985220 )     1.07313119
  WF centre and spread   48  ( -0.000612,  0.177232,  5.942469 )     1.40520292
  WF centre and spread   49  ( -0.001356,  0.203594,  5.954746 )     1.04050722
  WF centre and spread   50  (  0.000024,  0.243573,  5.954692 )     1.05738818
  WF centre and spread   51  (  2.805286,  2.626606,  5.984822 )     1.43398640
  WF centre and spread   52  (  2.806481,  2.605169,  5.953796 )     1.03752536
  WF centre and spread   53  (  2.807198,  2.564543,  5.954976 )     1.04621058
  WF centre and spread   54  (  2.807143,  2.988381,  1.970674 )     1.52840299
  WF centre and spread   55  (  2.804592,  3.008390,  1.985756 )     1.04143841
  WF centre and spread   56  (  2.806481,  3.049591,  1.985197 )     1.05135055
  Sum of centres and spreads (113.616368,111.770024,131.615424 )   243.48821262

   9600    -0.984E-01    28.6650435693      243.4882126170     881.11  <-- CONV
        O_D=      2.3785288 O_OD=     83.5325369 O_TOT=    243.4882126 <-- SPRD
 Delta: O_D= -0.1361547E+00 O_OD=  0.3772017E-01 O_TOT= -0.9843449E-01 <-- DLTA
 ------------------------------------------------------------------------------
 Cycle:   9800
  WF centre and spread    1  ( -0.000098, -0.000137,  0.000573 )     1.36892099
  WF centre and spread    2  (  0.000365, -0.000007,  0.000245 )     1.36935003
  WF centre and spread    3  ( -0.000466,  0.000574,  0.000124 )     1.33956703
  WF centre and spread    4  (  0.000115, -0.000007,  3.969013 )     1.36707806
  WF centre and spread    5  (  0.000364, -0.000072,  3.969710 )     1.36571731
  WF centre and spread    6  ( -0.000371,  0.000882,  3.969459 )     1.33899493
  WF centre and spread    7  (  2.807074,  2.806963,  3.969888 )     1.36484750
  WF centre and spread    8  (  2.806695,  2.807105,  3.970355 )     1.36691422
  WF centre and spread    9  (  2.806645,  2.805990,  3.969096 )     1.34452988
  WF centre and spread   10  (  2.807271,  2.807132,  0.000607 )     1.36677380
  WF centre and spread   11  (  2.806731,  2.806713,  0.000171 )     1.36784887
  WF centre and spread   12  (  2.806089,  2.806589,  0.000066 )     1.33934892
  WF centre and spread   13  (  0.576326,  0.559175, -0.561318 )    23.38876963
  WF centre and spread   14  ( -0.541209, -1.199211, -0.679112 )    34.32564639
  WF centre and spread   15  ( -0.465053,  1.746139,  2.374903 )    23.03384716
  WF centre and spread   16  (  1.814901, -0.492539,  4.590634 )    26.64425432
  WF centre and spread   17  (  2.946452,  2.581799,  3.878562 )    20.52193274
  WF centre and spread   18  (  2.924980,  2.664214,  3.978481 )    12.79991210
  WF centre and spread   19  (  2.503514,  1.994996, -1.007083 )    29.76461943
  WF centre and spread   20  (  2.794434,  2.856792, -0.006606 )    12.40889001
  WF centre and spread   21  (  1.403245,  4.210405, -0.161960 )     1.07179179
  WF centre and spread   22  (  1.374884,  4.235310, -0.142915 )     1.29867158
  WF centre and spread   23  (  1.379197,  4.236557, -0.141945 )     1.29485801
  WF centre and spread   24  (  1.403448,  1.403495,  0.163469 )     1.06345611
  WF centre and spread   25  (  1.382497,  1.382786,  0.142114 )     1.29691140
  WF centre and spread   26  (  1.379742,  1.370991,  0.141567 )     1.29795655
  WF centre and spread   27  (  4.210284,  1.403491,  3.805640 )     1.06096835
  WF centre and spread   28  (  4.246779,  1.373928,  3.828154 )     1.30155957
  WF centre and spread   29  (  4.243540,  1.362985,  3.828607 )     1.30768863
  WF centre and spread   30  (  4.210408,  4.210686,  4.128909 )     1.06010299
  WF centre and spread   31  (  4.242881,  4.237969,  4.112223 )     1.35106447
  WF centre and spread   32  (  4.238835,  4.238216,  4.111513 )     1.32601374
  WF centre and spread   33  (  4.210554,  1.403738,  0.164395 )     1.07256933
  WF centre and spread   34  (  4.231402,  1.382165,  0.141525 )     1.29389724
  WF centre and spread   35  (  4.228737,  1.385012,  0.141364 )     1.30057113
  WF centre and spread   36  (  4.210339,  4.210571, -0.161943 )     1.07078104
  WF centre and spread   37  (  4.233760,  4.238842, -0.142405 )     1.31488562
  WF centre and spread   38  (  4.240154,  4.236885, -0.141674 )     1.31325444
  WF centre and spread   39  (  1.403326,  4.210295,  4.131706 )     1.05604093
  WF centre and spread   40  (  1.374556,  4.234691,  4.112561 )     1.32497649
  WF centre and spread   41  (  1.379841,  4.242497,  4.111263 )     1.32097578
  WF centre and spread   42  (  1.403632,  1.403769,  3.801138 )     1.06179358
  WF centre and spread   43  (  1.368493,  1.371172,  3.827230 )     1.32239675
  WF centre and spread   44  (  1.373135,  1.359932,  3.828357 )     1.31829300
  WF centre and spread   45  (  0.000131, -0.177157,  1.991125 )     1.39736056
  WF centre and spread   46  ( -0.001760, -0.203626,  1.984648 )     1.03870715
  WF centre and spread   47  ( -0.000846, -0.248470,  1.985222 )     1.07320042
  WF centre and spread   48  ( -0.000604,  0.177272,  5.942585 )     1.40361570
  WF centre and spread   49  ( -0.001386,  0.203580,  5.954749 )     1.04022199
  WF centre and spread   50  (  0.000027,  0.243614,  5.954688 )     1.05725702
  WF centre and spread   51  (  2.805283,  2.626586,  5.985061 )     1.43240291
  WF centre and spread   52  (  2.806438,  2.605192,  5.953804 )     1.03711446
  WF centre and spread   53  (  2.807206,  2.564577,  5.954971 )     1.04586117
  WF centre and spread   54  (  2.807135,  2.988397,  1.970805 )     1.52539467
  WF centre and spread   55  (  2.804649,  3.008391,  1.985736 )     1.04129064
  WF centre and spread   56  (  2.806487,  3.049631,  1.985195 )     1.05114396
  Sum of centres and spreads (113.601189,111.737470,131.665250 )   242.83281252

   9800    -0.110E-01     4.6779546886      242.8328125195     899.18  <-- CONV
        O_D=      1.9953675 O_OD=     83.2602980 O_TOT=    242.8328125 <-- SPRD
 Delta: O_D= -0.1934265E-02 O_OD= -0.9042511E-02 O_TOT= -0.1097678E-01 <-- DLTA
 ------------------------------------------------------------------------------
 Cycle:  10000
  WF centre and spread    1  ( -0.000097, -0.000136,  0.000582 )     1.36873779
  WF centre and spread    2  (  0.000355,  0.000004,  0.000253 )     1.36895274
  WF centre and spread    3  ( -0.000459,  0.000558,  0.000127 )     1.33968142
  WF centre and spread    4  (  0.000106, -0.000004,  3.969034 )     1.36695033
  WF centre and spread    5  (  0.000331, -0.000039,  3.969699 )     1.36556515
  WF centre and spread    6  ( -0.000349,  0.000861,  3.969460 )     1.33904154
  WF centre and spread    7  (  2.807064,  2.806965,  3.969890 )     1.36477557
  WF centre and spread    8  (  2.806692,  2.807109,  3.970341 )     1.36667391
  WF centre and spread    9  (  2.806663,  2.805986,  3.969093 )     1.34453084
  WF centre and spread   10  (  2.807254,  2.807124,  0.000627 )     1.36654490
  WF centre and spread   11  (  2.806727,  2.806709,  0.000175 )     1.36768071
  WF centre and spread   12  (  2.806133,  2.806561,  0.000079 )     1.33938361
  WF centre and spread   13  (  0.566610,  0.549704, -0.533224 )    23.51042581
  WF centre and spread   14  ( -0.582960, -1.204649, -0.683213 )    34.33128566
  WF centre and spread   15  ( -0.471528,  1.755725,  2.358799 )    22.93791442
  WF centre and spread   16  (  1.861740, -0.490989,  4.632242 )    26.58641664
  WF centre and spread   17  (  2.945017,  2.572837,  3.876977 )    20.52870353
  WF centre and spread   18  (  2.921296,  2.666780,  3.979650 )    12.76338355
  WF centre and spread   19  (  2.497801,  1.968347, -1.012413 )    29.72428591
  WF centre and spread   20  (  2.793889,  2.858109, -0.006867 )    12.39213672
  WF centre and spread   21  (  1.403254,  4.210403, -0.161856 )     1.07165537
  WF centre and spread   22  (  1.374708,  4.235564, -0.142939 )     1.29919978
  WF centre and spread   23  (  1.378878,  4.236631, -0.141980 )     1.29586396
  WF centre and spread   24  (  1.403445,  1.403500,  0.163558 )     1.06316910
  WF centre and spread   25  (  1.382458,  1.382603,  0.142149 )     1.29714310
  WF centre and spread   26  (  1.379616,  1.370888,  0.141578 )     1.29875498
  WF centre and spread   27  (  4.210282,  1.403494,  3.805511 )     1.06150206
  WF centre and spread   28  (  4.247021,  1.373539,  3.828189 )     1.30346713
  WF centre and spread   29  (  4.243827,  1.362754,  3.828631 )     1.30912013
  WF centre and spread   30  (  4.210412,  4.210693,  4.128848 )     1.06033433
  WF centre and spread   31  (  4.243145,  4.238245,  4.112229 )     1.35189212
  WF centre and spread   32  (  4.239036,  4.238498,  4.111553 )     1.32694633
  WF centre and spread   33  (  4.210555,  1.403738,  0.164435 )     1.07229311
  WF centre and spread   34  (  4.231482,  1.382089,  0.141525 )     1.29439019
  WF centre and spread   35  (  4.228870,  1.384846,  0.141352 )     1.30127733
  WF centre and spread   36  (  4.210352,  4.210577, -0.161828 )     1.07033986
  WF centre and spread   37  (  4.233998,  4.238971, -0.142405 )     1.31535674
  WF centre and spread   38  (  4.240283,  4.237146, -0.141682 )     1.31363683
  WF centre and spread   39  (  1.403329,  4.210293,  4.131503 )     1.05619655
  WF centre and spread   40  (  1.374544,  4.234775,  4.112572 )     1.32495958
  WF centre and spread   41  (  1.379534,  4.242485,  4.111273 )     1.32202296
  WF centre and spread   42  (  1.403645,  1.403771,  3.801110 )     1.06208231
  WF centre and spread   43  (  1.368165,  1.370884,  3.827221 )     1.32402210
  WF centre and spread   44  (  1.373049,  1.359681,  3.828359 )     1.31988407
  WF centre and spread   45  (  0.000135, -0.177202,  1.991413 )     1.39740032
  WF centre and spread   46  ( -0.001742, -0.203560,  1.984635 )     1.03858717
  WF centre and spread   47  ( -0.000877, -0.248434,  1.985231 )     1.07325210
  WF centre and spread   48  ( -0.000599,  0.177303,  5.942301 )     1.40277438
  WF centre and spread   49  ( -0.001435,  0.203673,  5.954768 )     1.04010700
  WF centre and spread   50  ( -0.000003,  0.243664,  5.954706 )     1.05756063
  WF centre and spread   51  (  2.805271,  2.626536,  5.985181 )     1.43167304
  WF centre and spread   52  (  2.806351,  2.605203,  5.953829 )     1.03714851
  WF centre and spread   53  (  2.807224,  2.564657,  5.954972 )     1.04611143
  WF centre and spread   54  (  2.807154,  2.988410,  1.971030 )     1.52507812
  WF centre and spread   55  (  2.804688,  3.008349,  1.985728 )     1.04148612
  WF centre and spread   56  (  2.806495,  3.049661,  1.985179 )     1.05105566
  Sum of centres and spreads (113.578835,111.701888,131.709187 )   242.73081525

  10000    -0.337E+00    15.5147553307      242.7308152516     917.38  <-- CONV
        O_D=      2.1456079 O_OD=     83.0080604 O_TOT=    242.7308153 <-- SPRD
 Delta: O_D= -0.3485393E+00 O_OD=  0.1180563E-01 O_TOT= -0.3367337E+00 <-- DLTA
 ------------------------------------------------------------------------------
 Final State
  WF centre and spread    1  ( -0.000097, -0.000136,  0.000582 )     1.36873779
  WF centre and spread    2  (  0.000355,  0.000004,  0.000253 )     1.36895274
  WF centre and spread    3  ( -0.000459,  0.000558,  0.000127 )     1.33968142
  WF centre and spread    4  (  0.000106, -0.000004,  3.969034 )     1.36695033
  WF centre and spread    5  (  0.000331, -0.000039,  3.969699 )     1.36556515
  WF centre and spread    6  ( -0.000349,  0.000861,  3.969460 )     1.33904154
  WF centre and spread    7  (  2.807064,  2.806965,  3.969890 )     1.36477557
  WF centre and spread    8  (  2.806692,  2.807109,  3.970341 )     1.36667391
  WF centre and spread    9  (  2.806663,  2.805986,  3.969093 )     1.34453084
  WF centre and spread   10  (  2.807254,  2.807124,  0.000627 )     1.36654490
  WF centre and spread   11  (  2.806727,  2.806709,  0.000175 )     1.36768071
  WF centre and spread   12  (  2.806133,  2.806561,  0.000079 )     1.33938361
  WF centre and spread   13  (  0.566610,  0.549704, -0.533224 )    23.51042581
  WF centre and spread   14  ( -0.582960, -1.204649, -0.683213 )    34.33128566
  WF centre and spread   15  ( -0.471528,  1.755725,  2.358799 )    22.93791442
  WF centre and spread   16  (  1.861740, -0.490989,  4.632242 )    26.58641664
  WF centre and spread   17  (  2.945017,  2.572837,  3.876977 )    20.52870353
  WF centre and spread   18  (  2.921296,  2.666780,  3.979650 )    12.76338355
  WF centre and spread   19  (  2.497801,  1.968347, -1.012413 )    29.72428591
  WF centre and spread   20  (  2.793889,  2.858109, -0.006867 )    12.39213672
  WF centre and spread   21  (  1.403254,  4.210403, -0.161856 )     1.07165537
  WF centre and spread   22  (  1.374708,  4.235564, -0.142939 )     1.29919978
  WF centre and spread   23  (  1.378878,  4.236631, -0.141980 )     1.29586396
  WF centre and spread   24  (  1.403445,  1.403500,  0.163558 )     1.06316910
  WF centre and spread   25  (  1.382458,  1.382603,  0.142149 )     1.29714310
  WF centre and spread   26  (  1.379616,  1.370888,  0.141578 )     1.29875498
  WF centre and spread   27  (  4.210282,  1.403494,  3.805511 )     1.06150206
  WF centre and spread   28  (  4.247021,  1.373539,  3.828189 )     1.30346713
  WF centre and spread   29  (  4.243827,  1.362754,  3.828631 )     1.30912013
  WF centre and spread   30  (  4.210412,  4.210693,  4.128848 )     1.06033433
  WF centre and spread   31  (  4.243145,  4.238245,  4.112229 )     1.35189212
  WF centre and spread   32  (  4.239036,  4.238498,  4.111553 )     1.32694633
  WF centre and spread   33  (  4.210555,  1.403738,  0.164435 )     1.07229311
  WF centre and spread   34  (  4.231482,  1.382089,  0.141525 )     1.29439019
  WF centre and spread   35  (  4.228870,  1.384846,  0.141352 )     1.30127733
  WF centre and spread   36  (  4.210352,  4.210577, -0.161828 )     1.07033986
  WF centre and spread   37  (  4.233998,  4.238971, -0.142405 )     1.31535674
  WF centre and spread   38  (  4.240283,  4.237146, -0.141682 )     1.31363683
  WF centre and spread   39  (  1.403329,  4.210293,  4.131503 )     1.05619655
  WF centre and spread   40  (  1.374544,  4.234775,  4.112572 )     1.32495958
  WF centre and spread   41  (  1.379534,  4.242485,  4.111273 )     1.32202296
  WF centre and spread   42  (  1.403645,  1.403771,  3.801110 )     1.06208231
  WF centre and spread   43  (  1.368165,  1.370884,  3.827221 )     1.32402210
  WF centre and spread   44  (  1.373049,  1.359681,  3.828359 )     1.31988407
  WF centre and spread   45  (  0.000135, -0.177202,  1.991413 )     1.39740032
  WF centre and spread   46  ( -0.001742, -0.203560,  1.984635 )     1.03858717
  WF centre and spread   47  ( -0.000877, -0.248434,  1.985231 )     1.07325210
  WF centre and spread   48  ( -0.000599,  0.177303,  5.942301 )     1.40277438
  WF centre and spread   49  ( -0.001435,  0.203673,  5.954768 )     1.04010700
  WF centre and spread   50  ( -0.000003,  0.243664,  5.954706 )     1.05756063
  WF centre and spread   51  (  2.805271,  2.626536,  5.985181 )     1.43167304
  WF centre and spread   52  (  2.806351,  2.605203,  5.953829 )     1.03714851
  WF centre and spread   53  (  2.807224,  2.564657,  5.954972 )     1.04611143
  WF centre and spread   54  (  2.807154,  2.988410,  1.971030 )     1.52507812
  WF centre and spread   55  (  2.804688,  3.008349,  1.985728 )     1.04148612
  WF centre and spread   56  (  2.806495,  3.049661,  1.985179 )     1.05105566
  Sum of centres and spreads (113.578835,111.701888,131.709187 )   242.73081525

         Spreads (Ang^2)       Omega I      =   157.577146930
        ================       Omega D      =     2.145607925
                               Omega OD     =    83.008060397
    Final Spread (Ang^2)       Omega Total  =   242.730815252
 ------------------------------------------------------------------------------

 Writing checkpoint file smo.chk... done

 *---------------------------------------------------------------------------*
 |                               PLOTTING                                    |
 *---------------------------------------------------------------------------*


 Calculating interpolated band-structure

 Time to calculate interpolated band structure       2.100 (sec)

  
  Omega Invariant:   1-s^2 =   157.577146928 (Ang^2)
                   -2log s =  1273.721526658 (Ang^2)
                    acos^2 =   253.919651608 (Ang^2)

 *===========================================================================*
 |                             TIMING INFORMATION                            |
 *===========================================================================*
 |    Tag                                                Ncalls      Time (s)|
 |---------------------------------------------------------------------------|
 |kmesh: get                                        :         1         0.115|
 |overlap: read                                     :         1         4.561|
 |wann: main                                        :         1       916.495|
 |plot: main                                        :         1         6.188|
 *---------------------------------------------------------------------------*
 All done: wannier90 exiting
