
             +---------------------------------------------------+
             |                                                   |
             |                   WANNIER90                       |
             |                                                   |
             +---------------------------------------------------+
             |                                                   |
             |        Welcome to the Maximally-Localized         |
             |        Generalized Wannier Functions code         |
             |            http://www.wannier.org                 |
             |                                                   |
             |                                                   |
             |  Wannier90 Developer Group:                       |
             |    Giovanni Pizzi    (Paul Scherrer Institute)    |
             |    Valerio Vitale    (University of Trieste)      |
             |    David Vanderbilt  (Rutgers University)         |
             |    Nicola Marzari    (EPFL)                       |
             |    Ivo Souza         (Universidad del Pais Vasco) |
             |    Arash A. Mostofi  (Imperial College London)    |
             |    Jonathan R. Yates (University of Oxford)       |
             |                                                   |
             |  For the full list of Wannier90 3.x authors,      |
             |  please check the code documentation and the      |
             |  README on the GitHub page of the code            |
             |                                                   |
             |                                                   |
             |  Please cite                                      |
             |                                                   |
             |  [ref] "Wannier90 as a community code:            |
             |        new features and applications",            |
             |        G. Pizzi et al., J. Phys. Cond. Matt. 32,  |
             |        165902 (2020).                             |
             |        http://doi.org/10.1088/1361-648X/ab51ff    |
             |                                                   |
             |  in any publications arising from the use of      |
             |  this code. For the method please cite            |
             |                                                   |
             |  [ref] "Maximally Localized Generalised Wannier   |
             |         Functions for Composite Energy Bands"     |
             |         N. Marzari and D. Vanderbilt              |
             |         Phys. Rev. B 56 12847 (1997)              |
             |                                                   |
             |  [ref] "Maximally Localized Wannier Functions     |
             |         for Entangled Energy Bands"               |
             |         I. Souza, N. Marzari and D. Vanderbilt    |
             |         Phys. Rev. B 65 035109 (2001)             |
             |                                                   |
             |                                                   |
             | Copyright (c) 1996-2020                           |
             |        The Wannier90 Developer Group and          |
             |        individual contributors                    |
             |                                                   |
             |      Release: 3.1.0        5th March    2020      |
             |                                                   |
             | This program is free software; you can            |
             | redistribute it and/or modify it under the terms  |
             | of the GNU General Public License as published by |
             | the Free Software Foundation; either version 2 of |
             | the License, or (at your option) any later version|
             |                                                   |
             | This program is distributed in the hope that it   |
             | will be useful, but WITHOUT ANY WARRANTY; without |
             | even the implied warranty of MERCHANTABILITY or   |
             | FITNESS FOR A PARTICULAR PURPOSE. See the GNU     |
             | General Public License for more details.          |
             |                                                   |
             | You should have received a copy of the GNU General|
             | Public License along with this program; if not,   |
             | write to the Free Software Foundation, Inc.,      |
             | 675 Mass Ave, Cambridge, MA 02139, USA.           |
             |                                                   |
             +---------------------------------------------------+
             |    Execution started on 19Dec2025 at 21:43:21     |
             +---------------------------------------------------+
 
 ******************************************************************************
 * -> Using CODATA 2006 constant values                                       *
 *    (http://physics.nist.gov/cuu/Constants/index.html)                      *
 * -> Using Bohr value from CODATA                                            *
 ******************************************************************************
 

 Running in parallel on  32 CPUs


                                    ------
                                    SYSTEM
                                    ------

                              Lattice Vectors (Ang)
                    a_1     5.600000   0.000000   0.000000
                    a_2     0.000000   5.600000   0.000000
                    a_3     0.000000   0.000000   7.700000

                   Unit Cell Volume:     241.47200  (Ang^3)

                        Reciprocal-Space Vectors (Ang^-1)
                    b_1     1.121997   0.000000   0.000000
                    b_2     0.000000   1.121997   0.000000
                    b_3     0.000000   0.000000   0.815998
  
 *----------------------------------------------------------------------------*
 |   Site       Fractional Coordinate          Cartesian Coordinate (Ang)     |
 +----------------------------------------------------------------------------+
 | sr   1   0.00000   0.50000   0.25000   |    0.00000   2.80000   1.92500    |
 | sr   2   0.00000   0.50000   0.75000   |    0.00000   2.80000   5.77500    |
 | sr   3   0.50000   0.00000   0.75000   |    2.80000   0.00000   5.77500    |
 | sr   4   0.50000   0.00000   0.25000   |    2.80000   0.00000   1.92500    |
 | mo   1   0.00000   0.00000   0.00000   |    0.00000   0.00000   0.00000    |
 | mo   2   0.00000   0.00000   0.50000   |    0.00000   0.00000   3.85000    |
 | mo   3   0.50000   0.50000   0.50000   |    2.80000   2.80000   3.85000    |
 | mo   4   0.50000   0.50000   0.00000   |    2.80000   2.80000   0.00000    |
 | o    1   0.25000   0.75000   0.00000   |    1.40000   4.20000   0.00000    |
 | o    2   0.25000   0.25000   0.00000   |    1.40000   1.40000   0.00000    |
 | o    3   0.75000   0.25000   0.50000   |    4.20000   1.40000   3.85000    |
 | o    4   0.75000   0.75000   0.50000   |    4.20000   4.20000   3.85000    |
 | o    5   0.75000   0.25000   0.00000   |    4.20000   1.40000   0.00000    |
 | o    6   0.75000   0.75000   0.00000   |    4.20000   4.20000   0.00000    |
 | o    7   0.25000   0.75000   0.50000   |    1.40000   4.20000   3.85000    |
 | o    8   0.25000   0.25000   0.50000   |    1.40000   1.40000   3.85000    |
 | o    9   0.00000   0.00000   0.25000   |    0.00000   0.00000   1.92500    |
 | o   10   0.00000   0.00000   0.75000   |    0.00000   0.00000   5.77500    |
 | o   11   0.50000   0.50000   0.75000   |    2.80000   2.80000   5.77500    |
 | o   12   0.50000   0.50000   0.25000   |    2.80000   2.80000   1.92500    |
 *----------------------------------------------------------------------------*
                                -----------
                                PROJECTIONS
                                -----------
  
 +----------------------------------------------------------------------------+
 |     Frac. Coord.   l mr  r        z-axis               x-axis          Z/a |
 +----------------------------------------------------------------------------+
 |  0.00  0.00  0.00  2  1  1  0.000  0.000  1.000  1.000  0.000  0.000   1.0 |
 |  0.00  0.00  0.00  2  2  1  0.000  0.000  1.000  1.000  0.000  0.000   1.0 |
 |  0.00  0.00  0.00  2  3  1  0.000  0.000  1.000  1.000  0.000  0.000   1.0 |
 |  0.00  0.00  0.00  2  4  1  0.000  0.000  1.000  1.000  0.000  0.000   1.0 |
 |  0.00  0.00  0.00  2  5  1  0.000  0.000  1.000  1.000  0.000  0.000   1.0 |
 |  0.00  0.00  0.50  2  1  1  0.000  0.000  1.000  1.000  0.000  0.000   1.0 |
 |  0.00  0.00  0.50  2  2  1  0.000  0.000  1.000  1.000  0.000  0.000   1.0 |
 |  0.00  0.00  0.50  2  3  1  0.000  0.000  1.000  1.000  0.000  0.000   1.0 |
 |  0.00  0.00  0.50  2  4  1  0.000  0.000  1.000  1.000  0.000  0.000   1.0 |
 |  0.00  0.00  0.50  2  5  1  0.000  0.000  1.000  1.000  0.000  0.000   1.0 |
 |  0.50  0.50  0.50  2  1  1  0.000  0.000  1.000  1.000  0.000  0.000   1.0 |
 |  0.50  0.50  0.50  2  2  1  0.000  0.000  1.000  1.000  0.000  0.000   1.0 |
 |  0.50  0.50  0.50  2  3  1  0.000  0.000  1.000  1.000  0.000  0.000   1.0 |
 |  0.50  0.50  0.50  2  4  1  0.000  0.000  1.000  1.000  0.000  0.000   1.0 |
 |  0.50  0.50  0.50  2  5  1  0.000  0.000  1.000  1.000  0.000  0.000   1.0 |
 |  0.50  0.50  0.00  2  1  1  0.000  0.000  1.000  1.000  0.000  0.000   1.0 |
 |  0.50  0.50  0.00  2  2  1  0.000  0.000  1.000  1.000  0.000  0.000   1.0 |
 |  0.50  0.50  0.00  2  3  1  0.000  0.000  1.000  1.000  0.000  0.000   1.0 |
 |  0.50  0.50  0.00  2  4  1  0.000  0.000  1.000  1.000  0.000  0.000   1.0 |
 |  0.50  0.50  0.00  2  5  1  0.000  0.000  1.000  1.000  0.000  0.000   1.0 |
 |  0.25  0.75  0.00  1  1  1  0.000  0.000  1.000  1.000  0.000  0.000   1.0 |
 |  0.25  0.75  0.00  1  2  1  0.000  0.000  1.000  1.000  0.000  0.000   1.0 |
 |  0.25  0.75  0.00  1  3  1  0.000  0.000  1.000  1.000  0.000  0.000   1.0 |
 |  0.25  0.25  0.00  1  1  1  0.000  0.000  1.000  1.000  0.000  0.000   1.0 |
 |  0.25  0.25  0.00  1  2  1  0.000  0.000  1.000  1.000  0.000  0.000   1.0 |
 |  0.25  0.25  0.00  1  3  1  0.000  0.000  1.000  1.000  0.000  0.000   1.0 |
 |  0.75  0.25  0.50  1  1  1  0.000  0.000  1.000  1.000  0.000  0.000   1.0 |
 |  0.75  0.25  0.50  1  2  1  0.000  0.000  1.000  1.000  0.000  0.000   1.0 |
 |  0.75  0.25  0.50  1  3  1  0.000  0.000  1.000  1.000  0.000  0.000   1.0 |
 |  0.75  0.75  0.50  1  1  1  0.000  0.000  1.000  1.000  0.000  0.000   1.0 |
 |  0.75  0.75  0.50  1  2  1  0.000  0.000  1.000  1.000  0.000  0.000   1.0 |
 |  0.75  0.75  0.50  1  3  1  0.000  0.000  1.000  1.000  0.000  0.000   1.0 |
 |  0.75  0.25  0.00  1  1  1  0.000  0.000  1.000  1.000  0.000  0.000   1.0 |
 |  0.75  0.25  0.00  1  2  1  0.000  0.000  1.000  1.000  0.000  0.000   1.0 |
 |  0.75  0.25  0.00  1  3  1  0.000  0.000  1.000  1.000  0.000  0.000   1.0 |
 |  0.75  0.75  0.00  1  1  1  0.000  0.000  1.000  1.000  0.000  0.000   1.0 |
 |  0.75  0.75  0.00  1  2  1  0.000  0.000  1.000  1.000  0.000  0.000   1.0 |
 |  0.75  0.75  0.00  1  3  1  0.000  0.000  1.000  1.000  0.000  0.000   1.0 |
 |  0.25  0.75  0.50  1  1  1  0.000  0.000  1.000  1.000  0.000  0.000   1.0 |
 |  0.25  0.75  0.50  1  2  1  0.000  0.000  1.000  1.000  0.000  0.000   1.0 |
 |  0.25  0.75  0.50  1  3  1  0.000  0.000  1.000  1.000  0.000  0.000   1.0 |
 |  0.25  0.25  0.50  1  1  1  0.000  0.000  1.000  1.000  0.000  0.000   1.0 |
 |  0.25  0.25  0.50  1  2  1  0.000  0.000  1.000  1.000  0.000  0.000   1.0 |
 |  0.25  0.25  0.50  1  3  1  0.000  0.000  1.000  1.000  0.000  0.000   1.0 |
 |  0.00  0.00  0.25  1  1  1  0.000  0.000  1.000  1.000  0.000  0.000   1.0 |
 |  0.00  0.00  0.25  1  2  1  0.000  0.000  1.000  1.000  0.000  0.000   1.0 |
 |  0.00  0.00  0.25  1  3  1  0.000  0.000  1.000  1.000  0.000  0.000   1.0 |
 |  0.00  0.00  0.75  1  1  1  0.000  0.000  1.000  1.000  0.000  0.000   1.0 |
 |  0.00  0.00  0.75  1  2  1  0.000  0.000  1.000  1.000  0.000  0.000   1.0 |
 |  0.00  0.00  0.75  1  3  1  0.000  0.000  1.000  1.000  0.000  0.000   1.0 |
 |  0.50  0.50  0.75  1  1  1  0.000  0.000  1.000  1.000  0.000  0.000   1.0 |
 |  0.50  0.50  0.75  1  2  1  0.000  0.000  1.000  1.000  0.000  0.000   1.0 |
 |  0.50  0.50  0.75  1  3  1  0.000  0.000  1.000  1.000  0.000  0.000   1.0 |
 |  0.50  0.50  0.25  1  1  1  0.000  0.000  1.000  1.000  0.000  0.000   1.0 |
 |  0.50  0.50  0.25  1  2  1  0.000  0.000  1.000  1.000  0.000  0.000   1.0 |
 |  0.50  0.50  0.25  1  3  1  0.000  0.000  1.000  1.000  0.000  0.000   1.0 |
 +----------------------------------------------------------------------------+
  
                                ------------
                                K-POINT GRID
                                ------------
  
             Grid size =  5 x  5 x  5      Total points =  125
  
 *----------------------------------------------------------------------------*
 | k-point      Fractional Coordinate        Cartesian Coordinate (Ang^-1)    |
 +----------------------------------------------------------------------------+
 |     1    0.00000   0.00000   0.00000   |    0.00000   0.00000   0.00000    |
 |     2    0.00000   0.00000   0.20000   |    0.00000   0.00000   0.16320    |
 |     3    0.00000   0.00000   0.40000   |    0.00000   0.00000   0.32640    |
 |     4    0.00000   0.00000   0.60000   |    0.00000   0.00000   0.48960    |
 |     5    0.00000   0.00000   0.80000   |    0.00000   0.00000   0.65280    |
 |     6    0.00000   0.20000   0.00000   |    0.00000   0.22440   0.00000    |
 |     7    0.00000   0.20000   0.20000   |    0.00000   0.22440   0.16320    |
 |     8    0.00000   0.20000   0.40000   |    0.00000   0.22440   0.32640    |
 |     9    0.00000   0.20000   0.60000   |    0.00000   0.22440   0.48960    |
 |    10    0.00000   0.20000   0.80000   |    0.00000   0.22440   0.65280    |
 |    11    0.00000   0.40000   0.00000   |    0.00000   0.44880   0.00000    |
 |    12    0.00000   0.40000   0.20000   |    0.00000   0.44880   0.16320    |
 |    13    0.00000   0.40000   0.40000   |    0.00000   0.44880   0.32640    |
 |    14    0.00000   0.40000   0.60000   |    0.00000   0.44880   0.48960    |
 |    15    0.00000   0.40000   0.80000   |    0.00000   0.44880   0.65280    |
 |    16    0.00000   0.60000   0.00000   |    0.00000   0.67320   0.00000    |
 |    17    0.00000   0.60000   0.20000   |    0.00000   0.67320   0.16320    |
 |    18    0.00000   0.60000   0.40000   |    0.00000   0.67320   0.32640    |
 |    19    0.00000   0.60000   0.60000   |    0.00000   0.67320   0.48960    |
 |    20    0.00000   0.60000   0.80000   |    0.00000   0.67320   0.65280    |
 |    21    0.00000   0.80000   0.00000   |    0.00000   0.89760   0.00000    |
 |    22    0.00000   0.80000   0.20000   |    0.00000   0.89760   0.16320    |
 |    23    0.00000   0.80000   0.40000   |    0.00000   0.89760   0.32640    |
 |    24    0.00000   0.80000   0.60000   |    0.00000   0.89760   0.48960    |
 |    25    0.00000   0.80000   0.80000   |    0.00000   0.89760   0.65280    |
 |    26    0.20000   0.00000   0.00000   |    0.22440   0.00000   0.00000    |
 |    27    0.20000   0.00000   0.20000   |    0.22440   0.00000   0.16320    |
 |    28    0.20000   0.00000   0.40000   |    0.22440   0.00000   0.32640    |
 |    29    0.20000   0.00000   0.60000   |    0.22440   0.00000   0.48960    |
 |    30    0.20000   0.00000   0.80000   |    0.22440   0.00000   0.65280    |
 |    31    0.20000   0.20000   0.00000   |    0.22440   0.22440   0.00000    |
 |    32    0.20000   0.20000   0.20000   |    0.22440   0.22440   0.16320    |
 |    33    0.20000   0.20000   0.40000   |    0.22440   0.22440   0.32640    |
 |    34    0.20000   0.20000   0.60000   |    0.22440   0.22440   0.48960    |
 |    35    0.20000   0.20000   0.80000   |    0.22440   0.22440   0.65280    |
 |    36    0.20000   0.40000   0.00000   |    0.22440   0.44880   0.00000    |
 |    37    0.20000   0.40000   0.20000   |    0.22440   0.44880   0.16320    |
 |    38    0.20000   0.40000   0.40000   |    0.22440   0.44880   0.32640    |
 |    39    0.20000   0.40000   0.60000   |    0.22440   0.44880   0.48960    |
 |    40    0.20000   0.40000   0.80000   |    0.22440   0.44880   0.65280    |
 |    41    0.20000   0.60000   0.00000   |    0.22440   0.67320   0.00000    |
 |    42    0.20000   0.60000   0.20000   |    0.22440   0.67320   0.16320    |
 |    43    0.20000   0.60000   0.40000   |    0.22440   0.67320   0.32640    |
 |    44    0.20000   0.60000   0.60000   |    0.22440   0.67320   0.48960    |
 |    45    0.20000   0.60000   0.80000   |    0.22440   0.67320   0.65280    |
 |    46    0.20000   0.80000   0.00000   |    0.22440   0.89760   0.00000    |
 |    47    0.20000   0.80000   0.20000   |    0.22440   0.89760   0.16320    |
 |    48    0.20000   0.80000   0.40000   |    0.22440   0.89760   0.32640    |
 |    49    0.20000   0.80000   0.60000   |    0.22440   0.89760   0.48960    |
 |    50    0.20000   0.80000   0.80000   |    0.22440   0.89760   0.65280    |
 |    51    0.40000   0.00000   0.00000   |    0.44880   0.00000   0.00000    |
 |    52    0.40000   0.00000   0.20000   |    0.44880   0.00000   0.16320    |
 |    53    0.40000   0.00000   0.40000   |    0.44880   0.00000   0.32640    |
 |    54    0.40000   0.00000   0.60000   |    0.44880   0.00000   0.48960    |
 |    55    0.40000   0.00000   0.80000   |    0.44880   0.00000   0.65280    |
 |    56    0.40000   0.20000   0.00000   |    0.44880   0.22440   0.00000    |
 |    57    0.40000   0.20000   0.20000   |    0.44880   0.22440   0.16320    |
 |    58    0.40000   0.20000   0.40000   |    0.44880   0.22440   0.32640    |
 |    59    0.40000   0.20000   0.60000   |    0.44880   0.22440   0.48960    |
 |    60    0.40000   0.20000   0.80000   |    0.44880   0.22440   0.65280    |
 |    61    0.40000   0.40000   0.00000   |    0.44880   0.44880   0.00000    |
 |    62    0.40000   0.40000   0.20000   |    0.44880   0.44880   0.16320    |
 |    63    0.40000   0.40000   0.40000   |    0.44880   0.44880   0.32640    |
 |    64    0.40000   0.40000   0.60000   |    0.44880   0.44880   0.48960    |
 |    65    0.40000   0.40000   0.80000   |    0.44880   0.44880   0.65280    |
 |    66    0.40000   0.60000   0.00000   |    0.44880   0.67320   0.00000    |
 |    67    0.40000   0.60000   0.20000   |    0.44880   0.67320   0.16320    |
 |    68    0.40000   0.60000   0.40000   |    0.44880   0.67320   0.32640    |
 |    69    0.40000   0.60000   0.60000   |    0.44880   0.67320   0.48960    |
 |    70    0.40000   0.60000   0.80000   |    0.44880   0.67320   0.65280    |
 |    71    0.40000   0.80000   0.00000   |    0.44880   0.89760   0.00000    |
 |    72    0.40000   0.80000   0.20000   |    0.44880   0.89760   0.16320    |
 |    73    0.40000   0.80000   0.40000   |    0.44880   0.89760   0.32640    |
 |    74    0.40000   0.80000   0.60000   |    0.44880   0.89760   0.48960    |
 |    75    0.40000   0.80000   0.80000   |    0.44880   0.89760   0.65280    |
 |    76    0.60000   0.00000   0.00000   |    0.67320   0.00000   0.00000    |
 |    77    0.60000   0.00000   0.20000   |    0.67320   0.00000   0.16320    |
 |    78    0.60000   0.00000   0.40000   |    0.67320   0.00000   0.32640    |
 |    79    0.60000   0.00000   0.60000   |    0.67320   0.00000   0.48960    |
 |    80    0.60000   0.00000   0.80000   |    0.67320   0.00000   0.65280    |
 |    81    0.60000   0.20000   0.00000   |    0.67320   0.22440   0.00000    |
 |    82    0.60000   0.20000   0.20000   |    0.67320   0.22440   0.16320    |
 |    83    0.60000   0.20000   0.40000   |    0.67320   0.22440   0.32640    |
 |    84    0.60000   0.20000   0.60000   |    0.67320   0.22440   0.48960    |
 |    85    0.60000   0.20000   0.80000   |    0.67320   0.22440   0.65280    |
 |    86    0.60000   0.40000   0.00000   |    0.67320   0.44880   0.00000    |
 |    87    0.60000   0.40000   0.20000   |    0.67320   0.44880   0.16320    |
 |    88    0.60000   0.40000   0.40000   |    0.67320   0.44880   0.32640    |
 |    89    0.60000   0.40000   0.60000   |    0.67320   0.44880   0.48960    |
 |    90    0.60000   0.40000   0.80000   |    0.67320   0.44880   0.65280    |
 |    91    0.60000   0.60000   0.00000   |    0.67320   0.67320   0.00000    |
 |    92    0.60000   0.60000   0.20000   |    0.67320   0.67320   0.16320    |
 |    93    0.60000   0.60000   0.40000   |    0.67320   0.67320   0.32640    |
 |    94    0.60000   0.60000   0.60000   |    0.67320   0.67320   0.48960    |
 |    95    0.60000   0.60000   0.80000   |    0.67320   0.67320   0.65280    |
 |    96    0.60000   0.80000   0.00000   |    0.67320   0.89760   0.00000    |
 |    97    0.60000   0.80000   0.20000   |    0.67320   0.89760   0.16320    |
 |    98    0.60000   0.80000   0.40000   |    0.67320   0.89760   0.32640    |
 |    99    0.60000   0.80000   0.60000   |    0.67320   0.89760   0.48960    |
 |   100    0.60000   0.80000   0.80000   |    0.67320   0.89760   0.65280    |
 |   101    0.80000   0.00000   0.00000   |    0.89760   0.00000   0.00000    |
 |   102    0.80000   0.00000   0.20000   |    0.89760   0.00000   0.16320    |
 |   103    0.80000   0.00000   0.40000   |    0.89760   0.00000   0.32640    |
 |   104    0.80000   0.00000   0.60000   |    0.89760   0.00000   0.48960    |
 |   105    0.80000   0.00000   0.80000   |    0.89760   0.00000   0.65280    |
 |   106    0.80000   0.20000   0.00000   |    0.89760   0.22440   0.00000    |
 |   107    0.80000   0.20000   0.20000   |    0.89760   0.22440   0.16320    |
 |   108    0.80000   0.20000   0.40000   |    0.89760   0.22440   0.32640    |
 |   109    0.80000   0.20000   0.60000   |    0.89760   0.22440   0.48960    |
 |   110    0.80000   0.20000   0.80000   |    0.89760   0.22440   0.65280    |
 |   111    0.80000   0.40000   0.00000   |    0.89760   0.44880   0.00000    |
 |   112    0.80000   0.40000   0.20000   |    0.89760   0.44880   0.16320    |
 |   113    0.80000   0.40000   0.40000   |    0.89760   0.44880   0.32640    |
 |   114    0.80000   0.40000   0.60000   |    0.89760   0.44880   0.48960    |
 |   115    0.80000   0.40000   0.80000   |    0.89760   0.44880   0.65280    |
 |   116    0.80000   0.60000   0.00000   |    0.89760   0.67320   0.00000    |
 |   117    0.80000   0.60000   0.20000   |    0.89760   0.67320   0.16320    |
 |   118    0.80000   0.60000   0.40000   |    0.89760   0.67320   0.32640    |
 |   119    0.80000   0.60000   0.60000   |    0.89760   0.67320   0.48960    |
 |   120    0.80000   0.60000   0.80000   |    0.89760   0.67320   0.65280    |
 |   121    0.80000   0.80000   0.00000   |    0.89760   0.89760   0.00000    |
 |   122    0.80000   0.80000   0.20000   |    0.89760   0.89760   0.16320    |
 |   123    0.80000   0.80000   0.40000   |    0.89760   0.89760   0.32640    |
 |   124    0.80000   0.80000   0.60000   |    0.89760   0.89760   0.48960    |
 |   125    0.80000   0.80000   0.80000   |    0.89760   0.89760   0.65280    |
 *----------------------------------------------------------------------------*
  
  
 *---------------------------------- MAIN ------------------------------------*
 |  Number of Wannier Functions               :                56             |
 |  Number of Objective Wannier Functions     :                56             |
 |  Number of input Bloch states              :                72             |
 |  Output verbosity (1=low, 5=high)          :                 2             |
 |  Timing Level (1=low, 5=high)              :                 1             |
 |  Optimisation (0=memory, 3=speed)          :                 3             |
 |  Length Unit                               :               Ang             |
 |  Post-processing setup (write *.nnkp)      :                 F             |
 |  Using Gamma-only branch of algorithms     :                 F             |
 *----------------------------------------------------------------------------*
 *------------------------------- WANNIERISE ---------------------------------*
 |  Total number of iterations                :              5000             |
 |  Number of CG steps before reset           :                 5             |
 |  Trial step length for line search         :             2.000             |
 |  Convergence tolerence                     :         0.100E-11             |
 |  Convergence window                        :                 5             |
 |  Iterations between writing output         :               200             |
 |  Iterations between backing up to disk     :               100             |
 |  Write r^2_nm to file                      :                 F             |
 |  Write xyz WF centres to file              :                 F             |
 |  Write on-site energies <0n|H|0n> to file  :                 F             |
 |  Use guiding centre to control phases      :                 F             |
 |  Use phases for initial projections        :                 F             |
 *----------------------------------------------------------------------------*
 *------------------------------- DISENTANGLE --------------------------------*
 |  Using band disentanglement                :                 T             |
 |  Total number of iterations                :             10000             |
 |  Mixing ratio                              :             0.200             |
 |  Convergence tolerence                     :         1.000E-09             |
 |  Convergence window                        :                 3             |
 *----------------------------------------------------------------------------*
 *-------------------------------- PLOTTING ----------------------------------*
 |  Plotting interpolated bandstructure       :                 T             |
 |   Number of K-path sections                :                 7             |
 |   Divisions along first K-path section     :               100             |
 |   Output format                            :           gnuplot             |
 |   Output mode                              :               s-k             |
 *----------------------------------------------------------------------------*
 |   K-space path sections:                                                   |
 |    From: G       0.000  0.000  0.000     To: X       0.000  0.500  0.000   |
 |    From: X       0.000  0.500  0.000     To: M       0.500  0.500  0.000   |
 |    From: M       0.500  0.500  0.000     To: G       0.000  0.000  0.000   |
 |    From: G       0.000  0.000  0.000     To: Z       0.000  0.000  0.500   |
 |    From: Z       0.000  0.000  0.500     To: R       0.000  0.500  0.500   |
 |    From: R       0.000  0.500  0.500     To: A       0.500  0.500  0.500   |
 |    From: A       0.500  0.500  0.500     To: Z       0.000  0.000  0.500   |
 *----------------------------------------------------------------------------*
 |  Plotting Hamiltonian in WF basis          :                 T             |
 *----------------------------------------------------------------------------*

 *---------------------------------- K-MESH ----------------------------------*
 +----------------------------------------------------------------------------+
 |                    Distance to Nearest-Neighbour Shells                    |
 |                    ------------------------------------                    |
 |          Shell             Distance (Ang^-1)          Multiplicity         |
 |          -----             -----------------          ------------         |
 |             1                   0.163200                      2            |
 |             2                   0.224399                      4            |
 |             3                   0.277469                      8            |
 |             4                   0.317349                      4            |
 |             5                   0.326399                      2            |
 |             6                   0.356853                      8            |
 |             7                   0.396095                      8            |
 |             8                   0.448799                      4            |
 |             9                   0.455244                      8            |
 |            10                   0.477551                      8            |
 |            11                   0.489599                      2            |
 |            12                   0.501772                      8            |
 |            13                   0.527645                     16            |
 |            14                   0.538574                      8            |
 |            15                   0.554939                      8            |
 |            16                   0.583453                      8            |
 |            17                   0.598592                     16            |
 |            18                   0.634698                      4            |
 |            19                   0.652798                      2            |
 |            20                   0.655344                      8            |
 |            21                   0.664174                      8            |
 |            22                   0.673198                      4            |
 |            23                   0.690290                      8            |
 |            24                   0.692698                      8            |
 |            25                   0.701058                     16            |
 |            26                   0.709613                      8            |
 |            27                   0.713707                      8            |
 |            28                   0.725849                      8            |
 |            29                   0.728138                     16            |
 |            30                   0.748153                      8            |
 |            31                   0.781081                     16            |
 |            32                   0.792191                      8            |
 |            33                   0.801591                      8            |
 |            34                   0.809084                      8            |
 |            35                   0.815998                      2            |
 |            36                   0.823360                     16            |
 +----------------------------------------------------------------------------+
 | The b-vectors are chosen automatically                                     |
 | Shell:  1 w_b   18.7729156      (Ang^2)                                    |
 | Shell:  1 w_b   18.7729156      (Ang^2)                                    |
 | Shell:  2 w_b    9.9294760      (Ang^2)                                    |
 | The following shells are used:   1,  2                                     |
 +----------------------------------------------------------------------------+
 |                        Shell   # Nearest-Neighbours                        |
 |                        -----   --------------------                        |
 |                          1               2                                 |
 |                          2               4                                 |
 +----------------------------------------------------------------------------+
 | Completeness relation is fully satisfied [Eq. (B1), PRB 56, 12847 (1997)]  |
 +----------------------------------------------------------------------------+
 |                  b_k Vectors (Ang^-1) and Weights (Ang^2)                  |
 |                  ----------------------------------------                  |
 |            No.         b_k(x)      b_k(y)      b_k(z)        w_b           |
 |            ---        --------------------------------     --------        |
 |             1         0.000000    0.000000    0.163200    18.772916        |
 |             2         0.000000    0.000000   -0.163200    18.772916        |
 |             3         0.000000    0.224399    0.000000     9.929476        |
 |             4         0.224399    0.000000    0.000000     9.929476        |
 |             5         0.000000   -0.224399    0.000000     9.929476        |
 |             6        -0.224399    0.000000    0.000000     9.929476        |
 +----------------------------------------------------------------------------+
 |                           b_k Directions (Ang^-1)                          |
 |                           -----------------------                          |
 |            No.           x           y           z                         |
 |            ---        --------------------------------                     |
 |             1         0.000000    0.000000    0.163200                     |
 |             2         0.000000    0.224399    0.000000                     |
 |             3         0.224399    0.000000    0.000000                     |
 +----------------------------------------------------------------------------+
  
 Starting a new Wannier90 calculation ...


 Reading overlaps from smo.mmn    :  Created on 19Dec2025 at 21:42: 7

 Reading projections from smo.amn :  Created on 19Dec2025 at 21:38:37

 *------------------------------- DISENTANGLE --------------------------------*
 +----------------------------------------------------------------------------+
 |                              Energy  Windows                               |
 |                              ---------------                               |
 |                   Outer:    5.00000  to   25.00000  (eV)                   |
 |                   Inner:   12.00000  to   16.50000  (eV)                   |
 +----------------------------------------------------------------------------+
 |                        K-points with Frozen States                         |
 |                        ---------------------------                         |
 |     1     2     3     4     5     6     7     8     9    10    11    12    |
 |    13    14    15    16    17    18    19    20    21    22    23    24    |
 |    25    26    27    28    29    30    31    32    33    34    35    36    |
 |    37    38    39    40    41    42    43    44    45    46    47    48    |
 |    49    50    51    52    53    54    55    56    57    58    59    60    |
 |    61    62    63    64    65    66    67    68    69    70    71    72    |
 |    73    74    75    76    77    78    79    80    81    82    83    84    |
 |    85    86    87    88    89    90    91    92    93    94    95    96    |
 |    97    98    99   100   101   102   103   104   105   106   107   108    |
 |   109   110   111   112   113   114   115   116   117   118   119   120    |
 |   121   122   123   124   125                                              |
 +----------------------------------------------------------------------------+
   Number of target bands to extract:   56
 +----------------------------------------------------------------------------+
 |                                  Windows                                   |
 |                                  -------                                   |
 |               K-point      Ndimwin     Ndimfroz    Nfirstwin               |
 |               ----------------------------------------------               |
 |                   1           72           17           1                  |
 |                   2           72           15           1                  |
 |                   3           72           14           1                  |
 |                   4           72           14           1                  |
 |                   5           72           15           1                  |
 |                   6           72           13           1                  |
 |                   7           72           12           1                  |
 |                   8           72           12           1                  |
 |                   9           72           12           1                  |
 |                  10           72           12           1                  |
 |                  11           72           12           1                  |
 |                  12           72           12           1                  |
 |                  13           72           12           1                  |
 |                  14           72           12           1                  |
 |                  15           72           12           1                  |
 |                  16           72           12           1                  |
 |                  17           72           12           1                  |
 |                  18           72           12           1                  |
 |                  19           72           12           1                  |
 |                  20           72           12           1                  |
 |                  21           72           13           1                  |
 |                  22           72           12           1                  |
 |                  23           72           12           1                  |
 |                  24           72           12           1                  |
 |                  25           72           12           1                  |
 |                  26           72           13           1                  |
 |                  27           72           12           1                  |
 |                  28           72           12           1                  |
 |                  29           72           12           1                  |
 |                  30           72           12           1                  |
 |                  31           72           13           1                  |
 |                  32           72           12           1                  |
 |                  33           72           12           1                  |
 |                  34           72           12           1                  |
 |                  35           72           12           1                  |
 |                  36           72           12           1                  |
 |                  37           72           12           1                  |
 |                  38           72           12           1                  |
 |                  39           72           12           1                  |
 |                  40           72           12           1                  |
 |                  41           72           12           1                  |
 |                  42           72           12           1                  |
 |                  43           72           12           1                  |
 |                  44           72           12           1                  |
 |                  45           72           12           1                  |
 |                  46           72           13           1                  |
 |                  47           72           12           1                  |
 |                  48           72           12           1                  |
 |                  49           72           12           1                  |
 |                  50           72           12           1                  |
 |                  51           72           12           1                  |
 |                  52           72           12           1                  |
 |                  53           72           12           1                  |
 |                  54           72           12           1                  |
 |                  55           72           12           1                  |
 |                  56           72           12           1                  |
 |                  57           72           12           1                  |
 |                  58           72           12           1                  |
 |                  59           72           12           1                  |
 |                  60           72           12           1                  |
 |                  61           72           13           1                  |
 |                  62           72           12           1                  |
 |                  63           72           12           1                  |
 |                  64           72           12           1                  |
 |                  65           72           12           1                  |
 |                  66           72           13           1                  |
 |                  67           72           12           1                  |
 |                  68           72           12           1                  |
 |                  69           72           12           1                  |
 |                  70           72           12           1                  |
 |                  71           72           12           1                  |
 |                  72           72           12           1                  |
 |                  73           72           12           1                  |
 |                  74           72           12           1                  |
 |                  75           72           12           1                  |
 |                  76           72           12           1                  |
 |                  77           72           12           1                  |
 |                  78           72           12           1                  |
 |                  79           72           12           1                  |
 |                  80           72           12           1                  |
 |                  81           72           12           1                  |
 |                  82           72           12           1                  |
 |                  83           72           12           1                  |
 |                  84           72           12           1                  |
 |                  85           72           12           1                  |
 |                  86           72           13           1                  |
 |                  87           72           12           1                  |
 |                  88           72           12           1                  |
 |                  89           72           12           1                  |
 |                  90           72           12           1                  |
 |                  91           72           13           1                  |
 |                  92           72           12           1                  |
 |                  93           72           12           1                  |
 |                  94           72           12           1                  |
 |                  95           72           12           1                  |
 |                  96           72           12           1                  |
 |                  97           72           12           1                  |
 |                  98           72           12           1                  |
 |                  99           72           12           1                  |
 |                 100           72           12           1                  |
 |                 101           72           13           1                  |
 |                 102           72           12           1                  |
 |                 103           72           12           1                  |
 |                 104           72           12           1                  |
 |                 105           72           12           1                  |
 |                 106           72           13           1                  |
 |                 107           72           12           1                  |
 |                 108           72           12           1                  |
 |                 109           72           12           1                  |
 |                 110           72           12           1                  |
 |                 111           72           12           1                  |
 |                 112           72           12           1                  |
 |                 113           72           12           1                  |
 |                 114           72           12           1                  |
 |                 115           72           12           1                  |
 |                 116           72           12           1                  |
 |                 117           72           12           1                  |
 |                 118           72           12           1                  |
 |                 119           72           12           1                  |
 |                 120           72           12           1                  |
 |                 121           72           13           1                  |
 |                 122           72           12           1                  |
 |                 123           72           12           1                  |
 |                 124           72           12           1                  |
 |                 125           72           12           1                  |
 +----------------------------------------------------------------------------+

                   Unitarised projection of Wannier functions                  
                   ------------------------------------------                  
   A_mn = <psi_m|g_n> --> S = A.A^+ --> U = S^-1/2.A
   In dis_project... done
   Using an inner window (linner = T)
   In dis_proj_froz... done

                   Extraction of optimally-connected subspace                  
                   ------------------------------------------                  
 +---------------------------------------------------------------------+<-- DIS
 |  Iter     Omega_I(i-1)      Omega_I(i)      Delta (frac.)    Time   |<-- DIS
 +---------------------------------------------------------------------+<-- DIS
       1     179.07062075     168.99223893       5.964E-02      0.00    <-- DIS
       2     175.70694674     160.56087346       9.433E-02      0.10    <-- DIS
       3     172.37889474     154.43459168       1.162E-01      0.21    <-- DIS
       4     168.67165785     152.68695913       1.047E-01      0.31    <-- DIS
       5     165.39623358     151.21213035       9.380E-02      0.41    <-- DIS
       6     162.47417479     149.66581806       8.558E-02      0.50    <-- DIS
       7     159.82363818     148.12107225       7.901E-02      0.59    <-- DIS
       8     157.40116717     146.70702941       7.289E-02      0.68    <-- DIS
       9     155.18873910     145.42822601       6.712E-02      0.76    <-- DIS
      10     153.16834871     144.23877135       6.191E-02      0.85    <-- DIS
      11     151.31702048     143.09943204       5.743E-02      0.93    <-- DIS
      12     149.61030129     142.00704755       5.354E-02      1.01    <-- DIS
      13     148.03012656     140.99396574       4.990E-02      1.10    <-- DIS
      14     146.56861923     140.08613909       4.627E-02      1.18    <-- DIS
      15     145.22330782     139.28152697       4.266E-02      1.26    <-- DIS
      16     143.99079103     138.56198196       3.918E-02      1.35    <-- DIS
      17     142.86456249     137.90815851       3.594E-02      1.43    <-- DIS
      18     141.83562237     137.30190977       3.302E-02      1.52    <-- DIS
      19     140.89314565     136.72488489       3.049E-02      1.60    <-- DIS
      20     140.02490603     136.16215239       2.837E-02      1.68    <-- DIS
      21     139.21869718     135.61179733       2.660E-02      1.77    <-- DIS
      22     138.46506448     135.08418265       2.503E-02      1.85    <-- DIS
      23     137.75852541     134.58821567       2.356E-02      1.94    <-- DIS
      24     137.09607595     134.12545932       2.215E-02      2.02    <-- DIS
      25     136.47539325     133.69354005       2.081E-02      2.10    <-- DIS
      26     135.89411991     133.28955412       1.954E-02      2.18    <-- DIS
      27     135.34981237     132.91089658       1.835E-02      2.27    <-- DIS
      28     134.84000922     132.55521783       1.724E-02      2.35    <-- DIS
      29     134.36227952     132.22034059       1.620E-02      2.44    <-- DIS
      30     133.91424954     131.90421775       1.524E-02      2.52    <-- DIS
      31     133.49361707     131.60490971       1.435E-02      2.61    <-- DIS
      32     133.09815839     131.32057036       1.354E-02      2.70    <-- DIS
      33     132.72573097     131.04943806       1.279E-02      2.78    <-- DIS
      34     132.37427387     130.78983144       1.211E-02      2.86    <-- DIS
      35     132.04180733     130.54015011       1.150E-02      2.94    <-- DIS
      36     131.72643286     130.29888120       1.096E-02      3.02    <-- DIS
      37     131.42633487     130.06461254       1.047E-02      3.10    <-- DIS
      38     131.13978502     129.83605230       1.004E-02      3.19    <-- DIS
      39     130.86514988     129.61205420       9.668E-03      3.27    <-- DIS
      40     130.60090235     129.39164624       9.346E-03      3.35    <-- DIS
      41     130.34563665     129.17405951       9.070E-03      3.43    <-- DIS
      42     130.09808585     128.95875333       8.835E-03      3.51    <-- DIS
      43     129.85714077     128.74543274       8.635E-03      3.59    <-- DIS
      44     129.62186796     128.53405463       8.463E-03      3.68    <-- DIS
      45     129.39152475     128.32481951       8.313E-03      3.76    <-- DIS
      46     129.16556881     128.11814636       8.175E-03      3.84    <-- DIS
      47     128.94365991     127.91462961       8.045E-03      3.92    <-- DIS
      48     128.72565184     127.71497997       7.913E-03      4.00    <-- DIS
      49     128.51157345     127.51995448       7.776E-03      4.09    <-- DIS
      50     128.30159922     127.33028515       7.628E-03      4.17    <-- DIS
      51     128.09601175     127.14661647       7.467E-03      4.25    <-- DIS
      52     127.89515992     126.96946061       7.291E-03      4.34    <-- DIS
      53     127.69941759     126.79917416       7.100E-03      4.43    <-- DIS
      54     127.50914692     126.63595546       6.895E-03      4.51    <-- DIS
      55     127.32466944     126.47985751       6.679E-03      4.60    <-- DIS
      56     127.14624604     126.33081033       6.455E-03      4.69    <-- DIS
      57     126.97406575     126.18864698       6.224E-03      4.77    <-- DIS
      58     126.80824201     126.05312918       5.990E-03      4.85    <-- DIS
      59     126.64881470     125.92396988       5.756E-03      4.93    <-- DIS
      60     126.49575611     125.80085207       5.524E-03      5.01    <-- DIS
      61     126.34897929     125.68344345       5.295E-03      5.10    <-- DIS
      62     126.20834741     125.57140741       5.072E-03      5.18    <-- DIS
      63     126.07368338     125.46441106       4.856E-03      5.26    <-- DIS
      64     125.94477889     125.36213070       4.648E-03      5.35    <-- DIS
      65     125.82140275     125.26425542       4.448E-03      5.43    <-- DIS
      66     125.70330807     125.17048932       4.257E-03      5.52    <-- DIS
      67     125.59023854     125.08055264       4.075E-03      5.60    <-- DIS
      68     125.48193347     124.99418214       3.902E-03      5.69    <-- DIS
      69     125.37813200     124.91113101       3.739E-03      5.77    <-- DIS
      70     125.27857635     124.83116837       3.584E-03      5.86    <-- DIS
      71     125.18301438     124.75407857       3.438E-03      5.94    <-- DIS
      72     125.09120137     124.67966034       3.301E-03      6.03    <-- DIS
      73     125.00290144     124.60772586       3.171E-03      6.12    <-- DIS
      74     124.91788834     124.53809985       3.050E-03      6.20    <-- DIS
      75     124.83594607     124.47061861       2.935E-03      6.28    <-- DIS
      76     124.75686905     124.40512916       2.827E-03      6.37    <-- DIS
      77     124.68046220     124.34148835       2.726E-03      6.45    <-- DIS
      78     124.60654082     124.27956213       2.631E-03      6.54    <-- DIS
      79     124.53493037     124.21922478       2.542E-03      6.62    <-- DIS
      80     124.46546615     124.16035830       2.457E-03      6.71    <-- DIS
      81     124.39799296     124.10285183       2.378E-03      6.79    <-- DIS
      82     124.33236475     124.04660112       2.304E-03      6.87    <-- DIS
      83     124.26844423     123.99150807       2.234E-03      6.95    <-- DIS
      84     124.20610245     123.93748036       2.167E-03      7.04    <-- DIS
      85     124.14521845     123.88443102       2.105E-03      7.13    <-- DIS
      86     124.08567885     123.83227816       2.046E-03      7.22    <-- DIS
      87     124.02737741     123.78094461       1.991E-03      7.31    <-- DIS
      88     123.97021466     123.73035764       1.939E-03      7.40    <-- DIS
      89     123.91409743     123.68044863       1.889E-03      7.49    <-- DIS
      90     123.85893838     123.63115283       1.842E-03      7.58    <-- DIS
      91     123.80465560     123.58240903       1.798E-03      7.66    <-- DIS
      92     123.75117212     123.53415933       1.757E-03      7.75    <-- DIS
      93     123.69841547     123.48634889       1.717E-03      7.83    <-- DIS
      94     123.64631732     123.43892570       1.680E-03      7.92    <-- DIS
      95     123.59481310     123.39184035       1.645E-03      8.00    <-- DIS
      96     123.54384167     123.34504587       1.612E-03      8.09    <-- DIS
      97     123.49334510     123.29849757       1.580E-03      8.18    <-- DIS
      98     123.44326840     123.25215287       1.551E-03      8.26    <-- DIS
      99     123.39355938     123.20597111       1.523E-03      8.35    <-- DIS
     100     123.34416845     123.15991342       1.496E-03      8.44    <-- DIS
     101     123.29504846     123.11394251       1.471E-03      8.52    <-- DIS
     102     123.24615454     123.06802238       1.447E-03      8.61    <-- DIS
     103     123.19744385     123.02211805       1.425E-03      8.69    <-- DIS
     104     123.14887537     122.97619514       1.404E-03      8.78    <-- DIS
     105     123.10040949     122.93021936       1.384E-03      8.86    <-- DIS
     106     123.05200765     122.88415585       1.366E-03      8.94    <-- DIS
     107     123.00363172     122.83796832       1.349E-03      9.03    <-- DIS
     108     122.95524331     122.79161800       1.333E-03      9.11    <-- DIS
     109     122.90680287     122.74506233       1.318E-03      9.20    <-- DIS
     110     122.85826853     122.69825350       1.304E-03      9.28    <-- DIS
     111     122.80959478     122.65113677       1.292E-03      9.36    <-- DIS
     112     122.76073093     122.60364909       1.281E-03      9.45    <-- DIS
     113     122.71161961     122.55571822       1.272E-03      9.53    <-- DIS
     114     122.66219543     122.50726317       1.265E-03      9.61    <-- DIS
     115     122.61238460     122.45819684       1.259E-03      9.69    <-- DIS
     116     122.56210589     122.40843143       1.255E-03      9.77    <-- DIS
     117     122.51127392     122.35788654       1.254E-03      9.84    <-- DIS
     118     122.45980525     122.30649880       1.253E-03      9.92    <-- DIS
     119     122.40762677     122.25423051       1.255E-03     10.00    <-- DIS
     120     122.35468530     122.20107489       1.257E-03     10.07    <-- DIS
     121     122.30095578     122.14705658       1.260E-03     10.15    <-- DIS
     122     122.24644599     122.09222803       1.263E-03     10.23    <-- DIS
     123     122.19119641     122.03666336       1.266E-03     10.31    <-- DIS
     124     122.13527592     121.98045166       1.269E-03     10.38    <-- DIS
     125     122.07877458     121.92369091       1.272E-03     10.46    <-- DIS
     126     122.02179563     121.86648302       1.274E-03     10.54    <-- DIS
     127     121.96444802     121.80893014       1.277E-03     10.62    <-- DIS
     128     121.90684031     121.75113197       1.279E-03     10.70    <-- DIS
     129     121.84907621     121.69318393       1.281E-03     10.78    <-- DIS
     130     121.79125179     121.63517596       1.283E-03     10.86    <-- DIS
     131     121.73345397     121.57719186       1.285E-03     10.93    <-- DIS
     132     121.67576010     121.51930882       1.287E-03     11.01    <-- DIS
     133     121.61823817     121.46159731       1.290E-03     11.09    <-- DIS
     134     121.56094752     121.40412096       1.292E-03     11.17    <-- DIS
     135     121.50393956     121.34693668       1.294E-03     11.25    <-- DIS
     136     121.44725871     121.29009471       1.296E-03     11.32    <-- DIS
     137     121.39094305     121.23363879       1.298E-03     11.40    <-- DIS
     138     121.33502507     121.17760639       1.299E-03     11.48    <-- DIS
     139     121.27953214     121.12202890       1.300E-03     11.56    <-- DIS
     140     121.22448699     121.06693197       1.301E-03     11.64    <-- DIS
     141     121.16990807     121.01233580       1.302E-03     11.72    <-- DIS
     142     121.11580988     120.95825547       1.303E-03     11.79    <-- DIS
     143     121.06220325     120.90470136       1.303E-03     11.86    <-- DIS
     144     121.00909561     120.85167949       1.303E-03     11.93    <-- DIS
     145     120.95649123     120.79919195       1.302E-03     11.99    <-- DIS
     146     120.90439148     120.74723727       1.302E-03     12.04    <-- DIS
     147     120.85279507     120.69581089       1.301E-03     12.10    <-- DIS
     148     120.80169830     120.64490561       1.300E-03     12.15    <-- DIS
     149     120.75109538     120.59451202       1.298E-03     12.21    <-- DIS
     150     120.70097873     120.54461908       1.297E-03     12.26    <-- DIS
     151     120.65133929     120.49521461       1.296E-03     12.31    <-- DIS
     152     120.60216698     120.44628596       1.294E-03     12.36    <-- DIS
     153     120.55345107     120.39782058       1.293E-03     12.42    <-- DIS
     154     120.50518070     120.34980665       1.291E-03     12.47    <-- DIS
     155     120.45734531     120.30223367       1.289E-03     12.52    <-- DIS
     156     120.40993511     120.25509292       1.288E-03     12.58    <-- DIS
     157     120.36294149     120.20837781       1.286E-03     12.63    <-- DIS
     158     120.31635731     120.16208399       1.284E-03     12.69    <-- DIS
     159     120.27017706     120.11620928       1.282E-03     12.74    <-- DIS
     160     120.22439689     120.07075338       1.280E-03     12.80    <-- DIS
     161     120.17901447     120.02571740       1.277E-03     12.86    <-- DIS
     162     120.13402873     119.98110333       1.275E-03     12.91    <-- DIS
     163     120.08943953     119.93691338       1.272E-03     12.96    <-- DIS
     164     120.04524731     119.89314947       1.269E-03     13.02    <-- DIS
     165     120.00145265     119.84981276       1.265E-03     13.13    <-- DIS
     166     119.95805599     119.80690326       1.262E-03     13.27    <-- DIS
     167     119.91505733     119.76441965       1.258E-03     13.40    <-- DIS
     168     119.87245602     119.72235917       1.254E-03     13.56    <-- DIS
     169     119.83025058     119.68071763       1.249E-03     13.70    <-- DIS
     170     119.78843869     119.63948949       1.245E-03     13.85    <-- DIS
     171     119.74701708     119.59866799       1.240E-03     13.99    <-- DIS
     172     119.70598158     119.55824536       1.236E-03     14.14    <-- DIS
     173     119.66532715     119.51821293       1.231E-03     14.29    <-- DIS
     174     119.62504796     119.47856135       1.226E-03     14.43    <-- DIS
     175     119.58513746     119.43928074       1.221E-03     14.56    <-- DIS
     176     119.54558847     119.40036085       1.216E-03     14.70    <-- DIS
     177     119.50639325     119.36179116       1.211E-03     14.83    <-- DIS
     178     119.46754365     119.32356103       1.207E-03     14.97    <-- DIS
     179     119.42903112     119.28565974       1.202E-03     15.10    <-- DIS
     180     119.39084686     119.24807663       1.197E-03     15.24    <-- DIS
     181     119.35298187     119.21080111       1.193E-03     15.39    <-- DIS
     182     119.31542699     119.17382273       1.188E-03     15.53    <-- DIS
     183     119.27817302     119.13713120       1.184E-03     15.68    <-- DIS
     184     119.24121073     119.10071644       1.180E-03     15.82    <-- DIS
     185     119.20453089     119.06456858       1.176E-03     15.97    <-- DIS
     186     119.16812438     119.02867798       1.172E-03     16.11    <-- DIS
     187     119.13198214     118.99303526       1.168E-03     16.26    <-- DIS
     188     119.09609525     118.95763127       1.164E-03     16.41    <-- DIS
     189     119.06045492     118.92245711       1.160E-03     16.55    <-- DIS
     190     119.02505253     118.88750412       1.157E-03     16.70    <-- DIS
     191     118.98987963     118.85276390       1.154E-03     16.84    <-- DIS
     192     118.95492796     118.81822829       1.150E-03     16.98    <-- DIS
     193     118.92018944     118.78388936       1.147E-03     17.10    <-- DIS
     194     118.88565618     118.74973942       1.145E-03     17.19    <-- DIS
     195     118.85132049     118.71577098       1.142E-03     17.27    <-- DIS
     196     118.81717488     118.68197681       1.139E-03     17.35    <-- DIS
     197     118.78321206     118.64834986       1.137E-03     17.42    <-- DIS
     198     118.74942492     118.61488331       1.134E-03     17.49    <-- DIS
     199     118.71580654     118.58157053       1.132E-03     17.56    <-- DIS
     200     118.68235020     118.54840509       1.130E-03     17.64    <-- DIS
     201     118.64904937     118.51538074       1.128E-03     17.72    <-- DIS
     202     118.61589768     118.48249144       1.126E-03     17.80    <-- DIS
     203     118.58288896     118.44973130       1.124E-03     17.87    <-- DIS
     204     118.55001720     118.41709462       1.122E-03     17.95    <-- DIS
     205     118.51727657     118.38457588       1.121E-03     18.03    <-- DIS
     206     118.48466139     118.35216971       1.119E-03     18.11    <-- DIS
     207     118.45216616     118.31987091       1.118E-03     18.18    <-- DIS
     208     118.41978552     118.28767444       1.117E-03     18.26    <-- DIS
     209     118.38751429     118.25557542       1.116E-03     18.33    <-- DIS
     210     118.35534743     118.22356913       1.115E-03     18.41    <-- DIS
     211     118.32328004     118.19165097       1.114E-03     18.49    <-- DIS
     212     118.29130737     118.15981653       1.113E-03     18.56    <-- DIS
     213     118.25942483     118.12806152       1.112E-03     18.64    <-- DIS
     214     118.22762796     118.09638180       1.111E-03     18.72    <-- DIS
     215     118.19591243     118.06477338       1.111E-03     18.79    <-- DIS
     216     118.16427407     118.03323240       1.110E-03     18.87    <-- DIS
     217     118.13270883     118.00175515       1.110E-03     18.94    <-- DIS
     218     118.10121279     117.97033805       1.109E-03     19.02    <-- DIS
     219     118.06978218     117.93897765       1.109E-03     19.10    <-- DIS
     220     118.03841334     117.90767066       1.109E-03     19.17    <-- DIS
     221     118.00710277     117.87641390       1.109E-03     19.25    <-- DIS
     222     117.97584706     117.84520432       1.109E-03     19.32    <-- DIS
     223     117.94464296     117.81403902       1.109E-03     19.40    <-- DIS
     224     117.91348733     117.78291522       1.109E-03     19.47    <-- DIS
     225     117.88237716     117.75183025       1.109E-03     19.55    <-- DIS
     226     117.85130955     117.72078159       1.109E-03     19.62    <-- DIS
     227     117.82028175     117.68976683       1.109E-03     19.70    <-- DIS
     228     117.78929110     117.65878368       1.109E-03     19.77    <-- DIS
     229     117.75833509     117.62782998       1.109E-03     19.85    <-- DIS
     230     117.72741129     117.59690366       1.110E-03     19.92    <-- DIS
     231     117.69651743     117.56600280       1.110E-03     20.00    <-- DIS
     232     117.66565132     117.53512557       1.111E-03     20.07    <-- DIS
     233     117.63481089     117.50427024       1.111E-03     20.15    <-- DIS
     234     117.60399419     117.47343522       1.111E-03     20.22    <-- DIS
     235     117.57319938     117.44261897       1.112E-03     20.30    <-- DIS
     236     117.54242471     117.41182011       1.112E-03     20.37    <-- DIS
     237     117.51166855     117.38103731       1.113E-03     20.45    <-- DIS
     238     117.48092936     117.35026935       1.113E-03     20.52    <-- DIS
     239     117.45020570     117.31951510       1.114E-03     20.60    <-- DIS
     240     117.41949622     117.28877353       1.115E-03     20.68    <-- DIS
     241     117.38879969     117.25804366       1.115E-03     20.75    <-- DIS
     242     117.35811494     117.22732462       1.116E-03     20.83    <-- DIS
     243     117.32744090     117.19661560       1.116E-03     20.91    <-- DIS
     244     117.29677658     117.16591588       1.117E-03     20.99    <-- DIS
     245     117.26612107     117.13522479       1.117E-03     21.07    <-- DIS
     246     117.23547355     117.10454173       1.118E-03     21.15    <-- DIS
     247     117.20483327     117.07386619       1.119E-03     21.23    <-- DIS
     248     117.17419953     117.04319770       1.119E-03     21.31    <-- DIS
     249     117.14357173     117.01253583       1.120E-03     21.39    <-- DIS
     250     117.11294933     116.98188025       1.120E-03     21.47    <-- DIS
     251     117.08233183     116.95123064       1.121E-03     21.55    <-- DIS
     252     117.05171883     116.92058676       1.122E-03     21.63    <-- DIS
     253     117.02110996     116.88994842       1.122E-03     21.71    <-- DIS
     254     116.99050490     116.85931545       1.123E-03     21.79    <-- DIS
     255     116.95990342     116.82868775       1.123E-03     21.87    <-- DIS
     256     116.92930530     116.79806525       1.124E-03     21.94    <-- DIS
     257     116.89871040     116.76744793       1.124E-03     22.02    <-- DIS
     258     116.86811860     116.73683582       1.125E-03     22.09    <-- DIS
     259     116.83752986     116.70622896       1.125E-03     22.17    <-- DIS
     260     116.80694416     116.67562745       1.125E-03     22.25    <-- DIS
     261     116.77636151     116.64503143       1.126E-03     22.32    <-- DIS
     262     116.74578200     116.61444106       1.126E-03     22.40    <-- DIS
     263     116.71520574     116.58385656       1.127E-03     22.48    <-- DIS
     264     116.68463285     116.55327816       1.127E-03     22.55    <-- DIS
     265     116.65406355     116.52270615       1.127E-03     22.63    <-- DIS
     266     116.62349804     116.49214082       1.128E-03     22.71    <-- DIS
     267     116.59293658     116.46158254       1.128E-03     22.78    <-- DIS
     268     116.56237947     116.43103167       1.128E-03     22.86    <-- DIS
     269     116.53182704     116.40048862       1.128E-03     22.94    <-- DIS
     270     116.50127965     116.36995385       1.129E-03     23.01    <-- DIS
     271     116.47073769     116.33942782       1.129E-03     23.09    <-- DIS
     272     116.44020160     116.30891105       1.129E-03     23.16    <-- DIS
     273     116.40967183     116.27840406       1.129E-03     23.24    <-- DIS
     274     116.37914888     116.24790744       1.129E-03     23.32    <-- DIS
     275     116.34863328     116.21742178       1.129E-03     23.39    <-- DIS
     276     116.31812557     116.18694770       1.129E-03     23.47    <-- DIS
     277     116.28762634     116.15648586       1.129E-03     23.54    <-- DIS
     278     116.25713621     116.12603695       1.129E-03     23.62    <-- DIS
     279     116.22665582     116.09560167       1.129E-03     23.69    <-- DIS
     280     116.19618584     116.06518076       1.129E-03     23.77    <-- DIS
     281     116.16572697     116.03477498       1.129E-03     23.85    <-- DIS
     282     116.13527994     116.00438510       1.128E-03     23.93    <-- DIS
     283     116.10484548     115.97401194       1.128E-03     24.01    <-- DIS
     284     116.07442438     115.94365631       1.128E-03     24.09    <-- DIS
     285     116.04401744     115.91331905       1.128E-03     24.17    <-- DIS
     286     116.01362546     115.88300102       1.127E-03     24.25    <-- DIS
     287     115.98324929     115.85270310       1.127E-03     24.32    <-- DIS
     288     115.95288978     115.82242617       1.126E-03     24.40    <-- DIS
     289     115.92254781     115.79217113       1.126E-03     24.48    <-- DIS
     290     115.89222427     115.76193889       1.125E-03     24.56    <-- DIS
     291     115.86192006     115.73173036       1.125E-03     24.64    <-- DIS
     292     115.83163609     115.70154647       1.124E-03     24.71    <-- DIS
     293     115.80137331     115.67138813       1.124E-03     24.79    <-- DIS
     294     115.77113263     115.64125628       1.123E-03     24.87    <-- DIS
     295     115.74091501     115.61115184       1.122E-03     24.95    <-- DIS
     296     115.71072139     115.58107574       1.122E-03     25.03    <-- DIS
     297     115.68055273     115.55102889       1.121E-03     25.11    <-- DIS
     298     115.65040998     115.52101222       1.120E-03     25.19    <-- DIS
     299     115.62029408     115.49102662       1.119E-03     25.26    <-- DIS
     300     115.59020599     115.46107300       1.118E-03     25.34    <-- DIS
     301     115.56014666     115.43115223       1.118E-03     25.42    <-- DIS
     302     115.53011702     115.40126519       1.117E-03     25.50    <-- DIS
     303     115.50011801     115.37141273       1.116E-03     25.57    <-- DIS
     304     115.47015054     115.34159570       1.115E-03     25.65    <-- DIS
     305     115.44021553     115.31181490       1.114E-03     25.73    <-- DIS
     306     115.41031386     115.28207115       1.112E-03     25.81    <-- DIS
     307     115.38044643     115.25236521       1.111E-03     25.89    <-- DIS
     308     115.35061408     115.22269785       1.110E-03     25.97    <-- DIS
     309     115.32081767     115.19306980       1.109E-03     26.04    <-- DIS
     310     115.29105802     115.16348176       1.108E-03     26.12    <-- DIS
     311     115.26133594     115.13393442       1.107E-03     26.19    <-- DIS
     312     115.23165220     115.10442843       1.105E-03     26.27    <-- DIS
     313     115.20200757     115.07496442       1.104E-03     26.35    <-- DIS
     314     115.17240278     115.04554300       1.103E-03     26.42    <-- DIS
     315     115.14283853     115.01616473       1.101E-03     26.50    <-- DIS
     316     115.11331551     114.98683015       1.100E-03     26.58    <-- DIS
     317     115.08383437     114.95753980       1.099E-03     26.65    <-- DIS
     318     115.05439574     114.92829415       1.097E-03     26.73    <-- DIS
     319     115.02500022     114.89909367       1.096E-03     26.81    <-- DIS
     320     114.99564838     114.86993879       1.094E-03     26.88    <-- DIS
     321     114.96634077     114.84082991       1.093E-03     26.97    <-- DIS
     322     114.93707791     114.81176742       1.091E-03     27.04    <-- DIS
     323     114.90786027     114.78275167       1.090E-03     27.12    <-- DIS
     324     114.87868833     114.75378299       1.088E-03     27.20    <-- DIS
     325     114.84956251     114.72486168       1.087E-03     27.27    <-- DIS
     326     114.82048323     114.69598804       1.085E-03     27.35    <-- DIS
     327     114.79145086     114.66716231       1.084E-03     27.43    <-- DIS
     328     114.76246576     114.63838474       1.082E-03     27.51    <-- DIS
     329     114.73352826     114.60965556       1.081E-03     27.59    <-- DIS
     330     114.70463867     114.58097498       1.079E-03     27.67    <-- DIS
     331     114.67579729     114.55234318       1.078E-03     27.75    <-- DIS
     332     114.64700437     114.52376034       1.076E-03     27.83    <-- DIS
     333     114.61826017     114.49522664       1.075E-03     27.91    <-- DIS
     334     114.58956492     114.46674223       1.073E-03     27.98    <-- DIS
     335     114.56091884     114.43830726       1.071E-03     28.06    <-- DIS
     336     114.53232213     114.40992189       1.070E-03     28.14    <-- DIS
     337     114.50377497     114.38158626       1.068E-03     28.22    <-- DIS
     338     114.47527755     114.35330052       1.067E-03     28.30    <-- DIS
     339     114.44683005     114.32506481       1.065E-03     28.37    <-- DIS
     340     114.41843264     114.29687929       1.063E-03     28.45    <-- DIS
     341     114.39008547     114.26874412       1.062E-03     28.53    <-- DIS
     342     114.36178871     114.24065946       1.060E-03     28.61    <-- DIS
     343     114.33354252     114.21262551       1.059E-03     28.69    <-- DIS
     344     114.30534708     114.18464245       1.057E-03     28.77    <-- DIS
     345     114.27720255     114.15671049       1.055E-03     28.84    <-- DIS
     346     114.24910912     114.12882988       1.054E-03     28.92    <-- DIS
     347     114.22106698     114.10100084       1.052E-03     28.99    <-- DIS
     348     114.19307634     114.07322367       1.051E-03     29.07    <-- DIS
     349     114.16513740     114.04549865       1.049E-03     29.14    <-- DIS
     350     114.13725040     114.01782610       1.047E-03     29.22    <-- DIS
     351     114.10941560     113.99020638       1.046E-03     29.29    <-- DIS
     352     114.08163326     113.96263986       1.044E-03     29.37    <-- DIS
     353     114.05390369     113.93512693       1.042E-03     29.44    <-- DIS
     354     114.02622719     113.90766805       1.041E-03     29.52    <-- DIS
     355     113.99860410     113.88026366       1.039E-03     29.59    <-- DIS
     356     113.97103480     113.85291427       1.037E-03     29.67    <-- DIS
     357     113.94351967     113.82562040       1.036E-03     29.74    <-- DIS
     358     113.91605914     113.79838260       1.034E-03     29.81    <-- DIS
     359     113.88865365     113.77120145       1.032E-03     29.89    <-- DIS
     360     113.86130368     113.74407756       1.031E-03     29.97    <-- DIS
     361     113.83400972     113.71701158       1.029E-03     30.04    <-- DIS
     362     113.80677232     113.69000417       1.027E-03     30.12    <-- DIS
     363     113.77959202     113.66305601       1.025E-03     30.19    <-- DIS
     364     113.75246941     113.63616782       1.023E-03     30.27    <-- DIS
     365     113.72540511     113.60934032       1.022E-03     30.34    <-- DIS
     366     113.69839973     113.58257427       1.020E-03     30.42    <-- DIS
     367     113.67145395     113.55587042       1.018E-03     30.49    <-- DIS
     368     113.64456844     113.52922956       1.016E-03     30.57    <-- DIS
     369     113.61774388     113.50265247       1.014E-03     30.64    <-- DIS
     370     113.59098101     113.47613995       1.012E-03     30.72    <-- DIS
     371     113.56428054     113.44969279       1.010E-03     30.79    <-- DIS
     372     113.53764323     113.42331180       1.008E-03     30.87    <-- DIS
     373     113.51106981     113.39699778       1.006E-03     30.94    <-- DIS
     374     113.48456105     113.37075151       1.004E-03     31.01    <-- DIS
     375     113.45811772     113.34457379       1.002E-03     31.09    <-- DIS
     376     113.43174058     113.31846541       9.996E-04     31.16    <-- DIS
     377     113.40543040     113.29242711       9.974E-04     31.24    <-- DIS
     378     113.37918795     113.26645966       9.952E-04     31.31    <-- DIS
     379     113.35301399     113.24056379       9.930E-04     31.39    <-- DIS
     380     113.32690926     113.21474021       9.908E-04     31.46    <-- DIS
     381     113.30087450     113.18898962       9.885E-04     31.54    <-- DIS
     382     113.27491045     113.16331268       9.862E-04     31.61    <-- DIS
     383     113.24901782     113.13771004       9.838E-04     31.68    <-- DIS
     384     113.22319730     113.11218231       9.815E-04     31.76    <-- DIS
     385     113.19744956     113.08673007       9.791E-04     31.84    <-- DIS
     386     113.17177527     113.06135390       9.767E-04     31.91    <-- DIS
     387     113.14617505     113.03605431       9.742E-04     31.98    <-- DIS
     388     113.12064951     113.01083180       9.717E-04     32.06    <-- DIS
     389     113.09519923     112.98568684       9.693E-04     32.13    <-- DIS
     390     113.06982477     112.96061986       9.668E-04     32.20    <-- DIS
     391     113.04452664     112.93563127       9.642E-04     32.28    <-- DIS
     392     113.01930535     112.91072143       9.617E-04     32.35    <-- DIS
     393     112.99416136     112.88589068       9.591E-04     32.43    <-- DIS
     394     112.96909512     112.86113934       9.565E-04     32.50    <-- DIS
     395     112.94410702     112.83646768       9.539E-04     32.58    <-- DIS
     396     112.91919745     112.81187595       9.513E-04     32.65    <-- DIS
     397     112.89436676     112.78736438       9.487E-04     32.73    <-- DIS
     398     112.86961527     112.76293316       9.461E-04     32.80    <-- DIS
     399     112.84494327     112.73858247       9.434E-04     32.88    <-- DIS
     400     112.82035101     112.71431244       9.408E-04     32.96    <-- DIS
     401     112.79583875     112.69012321       9.381E-04     33.04    <-- DIS
     402     112.77140669     112.66601489       9.354E-04     33.13    <-- DIS
     403     112.74705501     112.64198755       9.328E-04     33.22    <-- DIS
     404     112.72278389     112.61804128       9.301E-04     33.31    <-- DIS
     405     112.69859345     112.59417612       9.274E-04     33.39    <-- DIS
     406     112.67448383     112.57039211       9.247E-04     33.47    <-- DIS
     407     112.65045513     112.54668929       9.220E-04     33.54    <-- DIS
     408     112.62650743     112.52306769       9.193E-04     33.61    <-- DIS
     409     112.60264079     112.49952731       9.166E-04     33.68    <-- DIS
     410     112.57885529     112.47606817       9.139E-04     33.76    <-- DIS
     411     112.55515096     112.45269028       9.111E-04     33.83    <-- DIS
     412     112.53152785     112.42939365       9.084E-04     33.90    <-- DIS
     413     112.50798597     112.40617828       9.057E-04     33.98    <-- DIS
     414     112.48452536     112.38304418       9.030E-04     34.05    <-- DIS
     415     112.46114602     112.35999138       9.003E-04     34.12    <-- DIS
     416     112.43784799     112.33701989       8.975E-04     34.19    <-- DIS
     417     112.41463126     112.31412975       8.948E-04     34.26    <-- DIS
     418     112.39149587     112.29132099       8.921E-04     34.33    <-- DIS
     419     112.36844182     112.26859366       8.894E-04     34.40    <-- DIS
[...]
  WF centre and spread   14  (  2.799982,  2.799997,  3.849993 )     1.35607961
  WF centre and spread   15  (  5.599982,  2.800017,  1.939870 )     5.63864212
  WF centre and spread   16  (  2.585603,  2.576574,  0.037649 )    16.73701984
  WF centre and spread   17  (  2.799990,  2.800004, -0.006316 )     1.36354092
  WF centre and spread   18  (  2.800003,  2.799970,  0.006296 )     1.36371263
  WF centre and spread   19  (  2.799982,  2.799998,  0.000004 )     1.37691781
  WF centre and spread   20  (  2.796599,  2.801657,  0.000527 )     4.68499151
  WF centre and spread   21  (  1.400043,  4.199955,  0.000019 )     0.94886764
  WF centre and spread   22  (  1.332479,  4.265057,  0.000749 )     1.29683131
  WF centre and spread   23  (  1.335564,  4.267516, -0.000007 )     1.29408055
  WF centre and spread   24  (  1.399993,  1.400088,  0.000139 )     0.94466906
  WF centre and spread   25  (  1.333137,  1.335335,  0.000004 )     1.29375459
  WF centre and spread   26  (  1.335395,  1.333502, -0.000332 )     1.29249354
  WF centre and spread   27  (  4.200017,  1.399991,  3.850058 )     0.94937371
  WF centre and spread   28  (  4.116349,  1.467747,  3.850681 )     1.36811339
  WF centre and spread   29  (  4.131817,  1.484334,  3.848986 )     1.37103625
  WF centre and spread   30  (  4.199966,  4.199970,  3.850068 )     0.94427840
  WF centre and spread   31  (  4.115292,  4.131249,  3.850266 )     1.37421063
  WF centre and spread   32  (  4.131596,  4.115715,  3.849566 )     1.37178197
  WF centre and spread   33  (  4.199962,  1.400039,  0.000016 )     0.94887214
  WF centre and spread   34  (  4.265927,  1.337140,  0.000772 )     1.29121573
  WF centre and spread   35  (  4.263253,  1.333982,  0.000050 )     1.29224994
  WF centre and spread   36  (  4.199954,  4.199957, -0.000043 )     0.94392569
  WF centre and spread   37  (  4.265996,  4.264054, -0.000293 )     1.29868798
  WF centre and spread   38  (  4.264035,  4.266231, -0.000702 )     1.29966363
  WF centre and spread   39  (  1.399988,  4.200003,  3.850010 )     0.94937142
  WF centre and spread   40  (  1.484357,  4.131960,  3.850629 )     1.36924520
  WF centre and spread   41  (  1.468392,  4.115585,  3.848992 )     1.37040831
  WF centre and spread   42  (  1.399985,  1.400086,  3.849891 )     0.94503814
  WF centre and spread   43  (  1.483870,  1.468229,  3.850027 )     1.37040576
  WF centre and spread   44  (  1.467872,  1.483828,  3.849405 )     1.36927187
  WF centre and spread   45  ( -0.000048, -0.000371,  1.764390 )     1.74897157
  WF centre and spread   46  (  0.000086, -0.000003,  1.925738 )     0.89624036
  WF centre and spread   47  ( -0.000003,  0.000066,  1.925919 )     0.88094342
  WF centre and spread   48  ( -0.000034, -0.000497,  5.933978 )     1.74253087
  WF centre and spread   49  ( -0.000116, -0.000037,  5.774076 )     0.88127180
  WF centre and spread   50  ( -0.000331, -0.000064,  5.774264 )     0.89573373
  WF centre and spread   51  (  2.799439,  2.799739,  5.657454 )     1.67582172
  WF centre and spread   52  (  2.800134,  2.800329,  5.775492 )     0.89622104
  WF centre and spread   53  (  2.800033,  2.800162,  5.775462 )     0.88201210
  WF centre and spread   54  (  2.799191,  2.799632,  2.042416 )     1.66278224
  WF centre and spread   55  (  2.800104,  2.799995,  1.924536 )     0.88167826
  WF centre and spread   56  (  2.799990,  2.800100,  1.924502 )     0.89678789
  Sum of centres and spreads (111.775648,111.775150,130.930977 )   115.32545275

   4600    -0.657E-01     4.3540099284      115.3254527384    1401.69  <-- CONV
        O_D=      6.0532339 O_OD=     11.1031204 O_TOT=    115.3254527 <-- SPRD
 Delta: O_D= -0.6831063E-01 O_OD=  0.2600114E-02 O_TOT= -0.6571052E-01 <-- DLTA
 ------------------------------------------------------------------------------
 Cycle:   4800
  WF centre and spread    1  ( -2.799971,  0.000035,  1.928601 )     5.78396306
  WF centre and spread    2  (  0.000011, -0.000004,  0.006406 )     1.35238619
  WF centre and spread    3  ( -0.000004, -0.000007, -0.006419 )     1.35259286
  WF centre and spread    4  (  0.000005,  0.000006,  0.000002 )     1.36730197
  WF centre and spread    5  (  0.000698,  2.799371, -1.928597 )     5.78321413
  WF centre and spread    6  ( -0.000834, -0.004186,  3.847965 )     6.79990202
  WF centre and spread    7  ( -0.000000, -0.000005,  3.843776 )     1.36181479
  WF centre and spread    8  ( -0.000008, -0.000009,  3.856240 )     1.36194069
  WF centre and spread    9  (  0.000002,  0.000014,  3.849985 )     1.37393852
  WF centre and spread   10  ( -0.000362,  0.000911,  3.848851 )     5.07071927
  WF centre and spread   11  (  2.799723,  0.000262,  5.760132 )     5.64075053
  WF centre and spread   12  (  2.800029,  2.800003,  3.856325 )     1.35653064
  WF centre and spread   13  (  2.800003,  2.800000,  3.843704 )     1.35664719
  WF centre and spread   14  (  2.799983,  2.799998,  3.849994 )     1.35608493
  WF centre and spread   15  (  5.599983,  2.800017,  1.939876 )     5.63860453
  WF centre and spread   16  (  2.585404,  2.576228, -0.000067 )    16.75256098
  WF centre and spread   17  (  2.799990,  2.800002, -0.006314 )     1.36354738
  WF centre and spread   18  (  2.800002,  2.799970,  0.006296 )     1.36372097
  WF centre and spread   19  (  2.799983,  2.799999,  0.000003 )     1.37679814
  WF centre and spread   20  (  2.796586,  2.801615,  0.000500 )     4.68135851
  WF centre and spread   21  (  1.400043,  4.199955,  0.000018 )     0.94886781
  WF centre and spread   22  (  1.332523,  4.264979,  0.000715 )     1.29392880
  WF centre and spread   23  (  1.335613,  4.267450, -0.000038 )     1.29117729
  WF centre and spread   24  (  1.399999,  1.400082,  0.000124 )     0.94458086
  WF centre and spread   25  (  1.333212,  1.335440, -0.000003 )     1.29046927
  WF centre and spread   26  (  1.335479,  1.333599, -0.000342 )     1.28908104
  WF centre and spread   27  (  4.200016,  1.399993,  3.850058 )     0.94933443
  WF centre and spread   28  (  4.116378,  1.467739,  3.850708 )     1.36806680
  WF centre and spread   29  (  4.131841,  1.484319,  3.849020 )     1.37097430
  WF centre and spread   30  (  4.199964,  4.199968,  3.850062 )     0.94426174
  WF centre and spread   31  (  4.115298,  4.131249,  3.850285 )     1.37434029
  WF centre and spread   32  (  4.131599,  4.115722,  3.849584 )     1.37191016
  WF centre and spread   33  (  4.199962,  1.400038,  0.000016 )     0.94887255
  WF centre and spread   34  (  4.265911,  1.337145,  0.000737 )     1.28849952
  WF centre and spread   35  (  4.263219,  1.333980,  0.000016 )     1.28929551
  WF centre and spread   36  (  4.199955,  4.199958, -0.000037 )     0.94394258
  WF centre and spread   37  (  4.265995,  4.264070, -0.000306 )     1.29553449
  WF centre and spread   38  (  4.264018,  4.266261, -0.000710 )     1.29625083
  WF centre and spread   39  (  1.399989,  4.200003,  3.850010 )     0.94933365
  WF centre and spread   40  (  1.484321,  4.131997,  3.850654 )     1.36930289
  WF centre and spread   41  (  1.468366,  4.115629,  3.849018 )     1.37046272
  WF centre and spread   42  (  1.399992,  1.400081,  3.849908 )     0.94491230
  WF centre and spread   43  (  1.483832,  1.468193,  3.850059 )     1.37030300
  WF centre and spread   44  (  1.467838,  1.483780,  3.849429 )     1.36919949
  WF centre and spread   45  ( -0.000109, -0.000376,  1.764429 )     1.74953518
  WF centre and spread   46  (  0.000085, -0.000003,  1.925738 )     0.89623300
  WF centre and spread   47  ( -0.000003,  0.000065,  1.925920 )     0.88094086
  WF centre and spread   48  ( -0.000108, -0.000501,  5.934370 )     1.74317442
  WF centre and spread   49  ( -0.000103, -0.000032,  5.774076 )     0.88121918
  WF centre and spread   50  ( -0.000289, -0.000060,  5.774264 )     0.89578934
  WF centre and spread   51  (  2.799551,  2.799927,  5.659216 )     1.63286371
  WF centre and spread   52  (  2.800131,  2.800287,  5.775493 )     0.89627737
  WF centre and spread   53  (  2.800029,  2.800150,  5.775462 )     0.88196690
  WF centre and spread   54  (  2.799364,  2.799780,  2.039897 )     1.62402490
  WF centre and spread   55  (  2.800103,  2.799995,  1.924537 )     0.88167137
  WF centre and spread   56  (  2.799991,  2.800100,  1.924502 )     0.89677625
  Sum of centres and spreads (111.775230,111.775186,130.894148 )   115.22775209

   4800    -0.750E-04     0.5905158797      115.2277520747    1420.26  <-- CONV
        O_D=      6.0326845 O_OD=     11.0259690 O_TOT=    115.2277521 <-- SPRD
 Delta: O_D=  0.1119060E-04 O_OD= -0.8621015E-04 O_TOT= -0.7501956E-04 <-- DLTA
 ------------------------------------------------------------------------------
 Cycle:   5000
  WF centre and spread    1  ( -2.799972,  0.000034,  1.928603 )     5.78395433
  WF centre and spread    2  (  0.000010, -0.000004,  0.006407 )     1.35239289
  WF centre and spread    3  ( -0.000003, -0.000006, -0.006420 )     1.35259607
  WF centre and spread    4  (  0.000004,  0.000006,  0.000002 )     1.36730950
  WF centre and spread    5  (  0.000623,  2.799441, -1.928597 )     5.78341417
  WF centre and spread    6  ( -0.001054, -0.004243,  3.848493 )     6.80014054
  WF centre and spread    7  ( -0.000001, -0.000004,  3.843776 )     1.36182220
  WF centre and spread    8  ( -0.000007, -0.000008,  3.856239 )     1.36194578
  WF centre and spread    9  (  0.000001,  0.000014,  3.849986 )     1.37394302
  WF centre and spread   10  ( -0.000364,  0.000921,  3.848941 )     5.06982993
  WF centre and spread   11  (  2.799754,  0.000233,  5.760129 )     5.64037771
  WF centre and spread   12  (  2.800027,  2.800002,  3.856324 )     1.35653517
  WF centre and spread   13  (  2.800003,  2.800000,  3.843704 )     1.35665435
  WF centre and spread   14  (  2.799984,  2.799998,  3.849995 )     1.35609139
  WF centre and spread   15  (  5.599984,  2.800017,  1.939877 )     5.63860283
  WF centre and spread   16  (  2.585340,  2.576222, -0.004380 )    16.76890864
  WF centre and spread   17  (  2.799990,  2.800001, -0.006312 )     1.36355380
  WF centre and spread   18  (  2.800002,  2.799971,  0.006296 )     1.36372927
  WF centre and spread   19  (  2.799984,  2.799999,  0.000002 )     1.37678210
  WF centre and spread   20  (  2.796616,  2.801589,  0.000487 )     4.68023379
  WF centre and spread   21  (  1.400043,  4.199956,  0.000017 )     0.94886696
  WF centre and spread   22  (  1.332538,  4.264943,  0.000712 )     1.29311597
  WF centre and spread   23  (  1.335631,  4.267418, -0.000038 )     1.29036872
  WF centre and spread   24  (  1.400002,  1.400078,  0.000114 )     0.94452178
  WF centre and spread   25  (  1.333246,  1.335484,  0.000006 )     1.28951189
  WF centre and spread   26  (  1.335520,  1.333639, -0.000335 )     1.28808868
  WF centre and spread   27  (  4.200015,  1.399994,  3.850058 )     0.94932420
  WF centre and spread   28  (  4.116391,  1.467736,  3.850723 )     1.36811022
  WF centre and spread   29  (  4.131852,  1.484313,  3.849037 )     1.37100639
  WF centre and spread   30  (  4.199964,  4.199968,  3.850058 )     0.94426585
  WF centre and spread   31  (  4.115300,  4.131250,  3.850296 )     1.37448276
  WF centre and spread   32  (  4.131601,  4.115724,  3.849593 )     1.37205609
  WF centre and spread   33  (  4.199962,  1.400038,  0.000016 )     0.94887198
  WF centre and spread   34  (  4.265909,  1.337141,  0.000733 )     1.28771765
  WF centre and spread   35  (  4.263208,  1.333973,  0.000015 )     1.28844169
  WF centre and spread   36  (  4.199955,  4.199958, -0.000033 )     0.94395404
  WF centre and spread   37  (  4.266003,  4.264079, -0.000294 )     1.29469635
  WF centre and spread   38  (  4.264019,  4.266274, -0.000694 )     1.29531502
  WF centre and spread   39  (  1.399989,  4.200003,  3.850011 )     0.94932491
  WF centre and spread   40  (  1.484303,  4.132015,  3.850669 )     1.36939896
  WF centre and spread   41  (  1.468352,  4.115649,  3.849032 )     1.37055776
  WF centre and spread   42  (  1.399996,  1.400077,  3.849919 )     0.94484262
  WF centre and spread   43  (  1.483814,  1.468175,  3.850081 )     1.37033553
  WF centre and spread   44  (  1.467822,  1.483755,  3.849444 )     1.36923954
  WF centre and spread   45  ( -0.000132, -0.000383,  1.764451 )     1.75011770
  WF centre and spread   46  (  0.000084, -0.000002,  1.925738 )     0.89622816
  WF centre and spread   47  ( -0.000003,  0.000065,  1.925920 )     0.88093922
  WF centre and spread   48  ( -0.000141, -0.000508,  5.934593 )     1.74382852
  WF centre and spread   49  ( -0.000094, -0.000029,  5.774076 )     0.88118428
  WF centre and spread   50  ( -0.000260, -0.000057,  5.774264 )     0.89582824
  WF centre and spread   51  (  2.799597,  2.799955,  5.660192 )     1.62027317
  WF centre and spread   52  (  2.800128,  2.800258,  5.775493 )     0.89631682
  WF centre and spread   53  (  2.800026,  2.800143,  5.775462 )     0.88193657
  WF centre and spread   54  (  2.799425,  2.799820,  2.038982 )     1.61234219
  WF centre and spread   55  (  2.800103,  2.799995,  1.924537 )     0.88166822
  WF centre and spread   56  (  2.799991,  2.800101,  1.924502 )     0.89677006
  Sum of centres and spreads (111.775079,111.775182,130.890900 )   115.21266618

   5000    -0.369E-04     0.4331082432      115.2126661662    1442.34  <-- CONV
        O_D=      6.0356799 O_OD=     11.0078877 O_TOT=    115.2126662 <-- SPRD
 Delta: O_D=  0.1125954E-04 O_OD= -0.4820946E-04 O_TOT= -0.3694992E-04 <-- DLTA
 ------------------------------------------------------------------------------
 Final State
  WF centre and spread    1  ( -2.799972,  0.000034,  1.928603 )     5.78395433
  WF centre and spread    2  (  0.000010, -0.000004,  0.006407 )     1.35239289
  WF centre and spread    3  ( -0.000003, -0.000006, -0.006420 )     1.35259607
  WF centre and spread    4  (  0.000004,  0.000006,  0.000002 )     1.36730950
  WF centre and spread    5  (  0.000623,  2.799441, -1.928597 )     5.78341417
  WF centre and spread    6  ( -0.001054, -0.004243,  3.848493 )     6.80014054
  WF centre and spread    7  ( -0.000001, -0.000004,  3.843776 )     1.36182220
  WF centre and spread    8  ( -0.000007, -0.000008,  3.856239 )     1.36194578
  WF centre and spread    9  (  0.000001,  0.000014,  3.849986 )     1.37394302
  WF centre and spread   10  ( -0.000364,  0.000921,  3.848941 )     5.06982993
  WF centre and spread   11  (  2.799754,  0.000233,  5.760129 )     5.64037771
  WF centre and spread   12  (  2.800027,  2.800002,  3.856324 )     1.35653517
  WF centre and spread   13  (  2.800003,  2.800000,  3.843704 )     1.35665435
  WF centre and spread   14  (  2.799984,  2.799998,  3.849995 )     1.35609139
  WF centre and spread   15  (  5.599984,  2.800017,  1.939877 )     5.63860283
  WF centre and spread   16  (  2.585340,  2.576222, -0.004380 )    16.76890864
  WF centre and spread   17  (  2.799990,  2.800001, -0.006312 )     1.36355380
  WF centre and spread   18  (  2.800002,  2.799971,  0.006296 )     1.36372927
  WF centre and spread   19  (  2.799984,  2.799999,  0.000002 )     1.37678210
  WF centre and spread   20  (  2.796616,  2.801589,  0.000487 )     4.68023379
  WF centre and spread   21  (  1.400043,  4.199956,  0.000017 )     0.94886696
  WF centre and spread   22  (  1.332538,  4.264943,  0.000712 )     1.29311597
  WF centre and spread   23  (  1.335631,  4.267418, -0.000038 )     1.29036872
  WF centre and spread   24  (  1.400002,  1.400078,  0.000114 )     0.94452178
  WF centre and spread   25  (  1.333246,  1.335484,  0.000006 )     1.28951189
  WF centre and spread   26  (  1.335520,  1.333639, -0.000335 )     1.28808868
  WF centre and spread   27  (  4.200015,  1.399994,  3.850058 )     0.94932420
  WF centre and spread   28  (  4.116391,  1.467736,  3.850723 )     1.36811022
  WF centre and spread   29  (  4.131852,  1.484313,  3.849037 )     1.37100639
  WF centre and spread   30  (  4.199964,  4.199968,  3.850058 )     0.94426585
  WF centre and spread   31  (  4.115300,  4.131250,  3.850296 )     1.37448276
  WF centre and spread   32  (  4.131601,  4.115724,  3.849593 )     1.37205609
  WF centre and spread   33  (  4.199962,  1.400038,  0.000016 )     0.94887198
  WF centre and spread   34  (  4.265909,  1.337141,  0.000733 )     1.28771765
  WF centre and spread   35  (  4.263208,  1.333973,  0.000015 )     1.28844169
  WF centre and spread   36  (  4.199955,  4.199958, -0.000033 )     0.94395404
  WF centre and spread   37  (  4.266003,  4.264079, -0.000294 )     1.29469635
  WF centre and spread   38  (  4.264019,  4.266274, -0.000694 )     1.29531502
  WF centre and spread   39  (  1.399989,  4.200003,  3.850011 )     0.94932491
  WF centre and spread   40  (  1.484303,  4.132015,  3.850669 )     1.36939896
  WF centre and spread   41  (  1.468352,  4.115649,  3.849032 )     1.37055776
  WF centre and spread   42  (  1.399996,  1.400077,  3.849919 )     0.94484262
  WF centre and spread   43  (  1.483814,  1.468175,  3.850081 )     1.37033553
  WF centre and spread   44  (  1.467822,  1.483755,  3.849444 )     1.36923954
  WF centre and spread   45  ( -0.000132, -0.000383,  1.764451 )     1.75011770
  WF centre and spread   46  (  0.000084, -0.000002,  1.925738 )     0.89622816
  WF centre and spread   47  ( -0.000003,  0.000065,  1.925920 )     0.88093922
  WF centre and spread   48  ( -0.000141, -0.000508,  5.934593 )     1.74382852
  WF centre and spread   49  ( -0.000094, -0.000029,  5.774076 )     0.88118428
  WF centre and spread   50  ( -0.000260, -0.000057,  5.774264 )     0.89582824
  WF centre and spread   51  (  2.799597,  2.799955,  5.660192 )     1.62027317
  WF centre and spread   52  (  2.800128,  2.800258,  5.775493 )     0.89631682
  WF centre and spread   53  (  2.800026,  2.800143,  5.775462 )     0.88193657
  WF centre and spread   54  (  2.799425,  2.799820,  2.038982 )     1.61234219
  WF centre and spread   55  (  2.800103,  2.799995,  1.924537 )     0.88166822
  WF centre and spread   56  (  2.799991,  2.800101,  1.924502 )     0.89677006
  Sum of centres and spreads (111.775079,111.775182,130.890900 )   115.21266618

         Spreads (Ang^2)       Omega I      =    98.169098513
        ================       Omega D      =     6.035679917
                               Omega OD     =    11.007887736
    Final Spread (Ang^2)       Omega Total  =   115.212666166
 ------------------------------------------------------------------------------

 Writing checkpoint file smo.chk... done

  
  Omega Invariant:   1-s^2 =    98.169098526 (Ang^2)
                   -2log s =   141.719659995 (Ang^2)
                    acos^2 =   109.224857050 (Ang^2)
 *---------------------------------------------------------------------------*
 |                               PLOTTING                                    |
 *---------------------------------------------------------------------------*


 Calculating interpolated band-structure

 Time to calculate interpolated band structure      26.520 (sec)


 *===========================================================================*
 |                             TIMING INFORMATION                            |
 *===========================================================================*
 |    Tag                                                Ncalls      Time (s)|
 |---------------------------------------------------------------------------|
 |kmesh: get                                        :         1         0.067|
 |overlap: read                                     :         1         5.640|
 |dis: main                                         :         1       893.493|
 |wann: main                                        :         1       550.260|
 |plot: main                                        :         1        28.883|
 *---------------------------------------------------------------------------*
