
     Program BANDS v.7.3 starts on 18Dec2025 at 18:17:17 

     This program is part of the open-source Quantum ESPRESSO suite
     for quantum simulation of materials; please cite
         "P. Giannozzi et al., J. Phys.:Condens. Matter 21 395502 (2009);
         "P. Giannozzi et al., J. Phys.:Condens. Matter 29 465901 (2017);
         "P. Giannozzi et al., J. Chem. Phys. 152 154105 (2020);
          URL http://www.quantum-espresso.org", 
     in publications or presentations arising from this work. More details at
     http://www.quantum-espresso.org/quote

     Parallel version (MPI), running on    32 processors

     MPI processes distributed on     1 nodes
     R & G space division:  proc/nbgrp/npool/nimage =      32
     359455 MiB available memory on the printing compute node when the environment starts


     Reading xml data from directory:

     ./out/smo.save/
     file Sr.pz-spn-kjpaw_psl.1.0.0.UPF: wavefunction(s)  4P renormalized
     file Mo.pz-spn-kjpaw_psl.1.0.0.UPF: wavefunction(s)  4S 4D renormalized
     file O.pz-n-kjpaw_psl.1.0.0.UPF: wavefunction(s)  2S 2P renormalized

     IMPORTANT: XC functional enforced from input :
     Exchange-correlation= PZ
                           (   1   1   0   0   0   0   0)
     Any further DFT definition will be discarded
     Please, verify this is what you really want


     Parallelization info
     --------------------
     sticks:   dense  smooth     PW     G-vecs:    dense   smooth      PW
     Min         178      89     24                13920     4919     716
     Max         179      90     25                13925     4924     721
     Sum        5713    2861    793               445525   157471   22963

     Using Slab Decomposition

     Reading collected, re-writing distributed wavefunctions
     high-symmetry point:  0.0000 0.0000 0.0000   x coordinate   0.0000
     high-symmetry point:  0.0000 0.5000 0.0000   x coordinate   0.5000
     high-symmetry point:  0.5000 0.5000 0.0000   x coordinate   1.0000
     high-symmetry point:  0.0000 0.0000 0.0000   x coordinate   1.7071
     high-symmetry point:  0.0000 0.0000 0.3636   x coordinate   2.0707
     high-symmetry point:  0.0000 0.5000 0.3636   x coordinate   2.5707
     high-symmetry point:  0.5000 0.5000 0.3636   x coordinate   3.0707
     high-symmetry point:  0.0000 0.0000 0.3636   x coordinate   3.7778

     Plottable bands (eV) written to file smo_bands.dat.gnu
     Bands written to file smo_bands.dat

     BANDS        :      4.82s CPU      5.51s WALL


   This run was terminated on:  18:17:22  18Dec2025            

=------------------------------------------------------------------------------=
   JOB DONE.
=------------------------------------------------------------------------------=
