
     Program PWSCF v.7.3 starts on 18Dec2025 at 18:17:23 

     This program is part of the open-source Quantum ESPRESSO suite
     for quantum simulation of materials; please cite
         "P. Giannozzi et al., J. Phys.:Condens. Matter 21 395502 (2009);
         "P. Giannozzi et al., J. Phys.:Condens. Matter 29 465901 (2017);
         "P. Giannozzi et al., J. Chem. Phys. 152 154105 (2020);
          URL http://www.quantum-espresso.org", 
     in publications or presentations arising from this work. More details at
     http://www.quantum-espresso.org/quote

     Parallel version (MPI), running on    32 processors

     MPI processes distributed on     1 nodes
     338945 MiB available memory on the printing compute node when the environment starts

     Reading input from smo.nscf.in

     Current dimensions of program PWSCF are:
     Max number of different atomic species (ntypx) = 10
     Max number of k-points (npk) =  40000
     Max angular momentum in pseudopotentials (lmaxx) =  4
     file Sr.pz-spn-kjpaw_psl.1.0.0.UPF: wavefunction(s)  4P renormalized
     file Mo.pz-spn-kjpaw_psl.1.0.0.UPF: wavefunction(s)  4S 4D renormalized
     file O.pz-n-kjpaw_psl.1.0.0.UPF: wavefunction(s)  2S 2P renormalized

     Atomic positions and unit cell read from directory:
     ./out/smo.save/

     Found identity + (  0.0000  0.0000 -0.5000) symmetry
     This is a supercell, fractional translations are disabled

     R & G space division:  proc/nbgrp/npool/nimage =      32
     Subspace diagonalization in iterative solution of the eigenvalue problem:
     a serial algorithm will be used


     Parallelization info
     --------------------
     sticks:   dense  smooth     PW     G-vecs:    dense   smooth      PW
     Min         178      89     26                13920     4919     783
     Max         179      90     28                13925     4924     786
     Sum        5713    2861    845               445525   157471   25097

     Using Slab Decomposition



     bravais-lattice index     =            0
     lattice parameter (alat)  =      10.5825  a.u.
     unit-cell volume          =    1629.5338 (a.u.)^3
     number of atoms/cell      =           20
     number of atomic types    =            3
     number of electrons       =       168.00
     number of Kohn-Sham states=          116
     kinetic-energy cutoff     =      80.0000  Ry
     charge density cutoff     =     640.0000  Ry
     Exchange-correlation= SLA  PZ   NOGX NOGC
                           (   1   1   0   0   0   0   0)

     celldm(1)=  10.582466  celldm(2)=   0.000000  celldm(3)=   0.000000
     celldm(4)=   0.000000  celldm(5)=   0.000000  celldm(6)=   0.000000

     crystal axes: (cart. coord. in units of alat)
               a(1) = (   1.000000   0.000000   0.000000 )  
               a(2) = (   0.000000   1.000000   0.000000 )  
               a(3) = (   0.000000   0.000000   1.375000 )  

     reciprocal axes: (cart. coord. in units 2 pi/alat)
               b(1) = (  1.000000  0.000000  0.000000 )  
               b(2) = (  0.000000  1.000000  0.000000 )  
               b(3) = (  0.000000  0.000000  0.727273 )  


     PseudoPot. # 1 for Sr read from file:
     ../../pseudo/Sr.pz-spn-kjpaw_psl.1.0.0.UPF
     MD5 check sum: 14b1f655f5497b386c4f305353cf4fd4
     Pseudo is Projector augmented-wave + core cor, Zval = 10.0
     Generated using 'atomic' code by A. Dal Corso  v.7.3
     Shape of augmentation charge: PSQ
     Using radial grid of 1221 points,  6 beta functions with: 
                l(1) =   0
                l(2) =   0
                l(3) =   1
                l(4) =   1
                l(5) =   2
                l(6) =   2
     Q(r) pseudized with 0 coefficients 


     PseudoPot. # 2 for Mo read from file:
     ../../pseudo/Mo.pz-spn-kjpaw_psl.1.0.0.UPF
     MD5 check sum: 2e12aff744a4785a34e7548d4bec1d21
     Pseudo is Projector augmented-wave + core cor, Zval = 14.0
     Generated using 'atomic' code by A. Dal Corso  v.7.3
     Shape of augmentation charge: PSQ
     Using radial grid of 1229 points,  6 beta functions with: 
                l(1) =   0
                l(2) =   0
                l(3) =   1
                l(4) =   1
                l(5) =   2
                l(6) =   2
     Q(r) pseudized with 0 coefficients 


     PseudoPot. # 3 for O  read from file:
     ../../pseudo/O.pz-n-kjpaw_psl.1.0.0.UPF
     MD5 check sum: 71a951e35f67dc87891058fc5642ed8f
     Pseudo is Projector augmented-wave + core cor, Zval =  6.0
     Generated using 'atomic' code by A. Dal Corso  v.7.3
     Shape of augmentation charge: PSQ
     Using radial grid of 1095 points,  4 beta functions with: 
                l(1) =   0
                l(2) =   0
                l(3) =   1
                l(4) =   1
     Q(r) pseudized with 0 coefficients 


     atomic species   valence    mass     pseudopotential
     Sr               10.00    87.62000     Sr( 1.00)
     Mo               14.00    95.95000     Mo( 1.00)
     O                 6.00    15.99900     O ( 1.00)

     No symmetry found


                                    s                        frac. trans.

      isym =  1     identity                                     

 cryst.   s( 1) = (     1          0          0      )
                  (     0          1          0      )
                  (     0          0          1      )

 cart.    s( 1) = (  1.0000000  0.0000000  0.0000000 )
                  (  0.0000000  1.0000000  0.0000000 )
                  (  0.0000000  0.0000000  1.0000000 )


   Cartesian axes

     site n.     atom                  positions (alat units)
         1        Sr     tau(   1) = (   0.0000000   0.5000000   0.3437500  )
         2        Sr     tau(   2) = (   0.0000000   0.5000000   1.0312500  )
         3        Sr     tau(   3) = (   0.5000000   0.0000000   1.0312500  )
         4        Sr     tau(   4) = (   0.5000000   0.0000000   0.3437500  )
         5        Mo     tau(   5) = (   0.0000000   0.0000000   0.0000000  )
         6        Mo     tau(   6) = (   0.0000000   0.0000000   0.6875000  )
         7        Mo     tau(   7) = (   0.5000000   0.5000000   0.6875000  )
         8        Mo     tau(   8) = (   0.5000000   0.5000000   0.0000000  )
         9        O      tau(   9) = (   0.2500000   0.7500000   0.0000000  )
        10        O      tau(  10) = (   0.2500000   0.2500000   0.0000000  )
        11        O      tau(  11) = (   0.7500000   0.2500000   0.6875000  )
        12        O      tau(  12) = (   0.7500000   0.7500000   0.6875000  )
        13        O      tau(  13) = (   0.7500000   0.2500000   0.0000000  )
        14        O      tau(  14) = (   0.7500000   0.7500000   0.0000000  )
        15        O      tau(  15) = (   0.2500000   0.7500000   0.6875000  )
        16        O      tau(  16) = (   0.2500000   0.2500000   0.6875000  )
        17        O      tau(  17) = (   0.0000000   0.0000000   0.3437500  )
        18        O      tau(  18) = (   0.0000000   0.0000000   1.0312500  )
        19        O      tau(  19) = (   0.5000000   0.5000000   1.0312500  )
        20        O      tau(  20) = (   0.5000000   0.5000000   0.3437500  )

   Crystallographic axes

     site n.     atom                  positions (cryst. coord.)
         1        Sr     tau(   1) = (  0.0000000  0.5000000  0.2500000  )
         2        Sr     tau(   2) = (  0.0000000  0.5000000  0.7500000  )
         3        Sr     tau(   3) = (  0.5000000  0.0000000  0.7500000  )
         4        Sr     tau(   4) = (  0.5000000  0.0000000  0.2500000  )
         5        Mo     tau(   5) = (  0.0000000  0.0000000  0.0000000  )
         6        Mo     tau(   6) = (  0.0000000  0.0000000  0.5000000  )
         7        Mo     tau(   7) = (  0.5000000  0.5000000  0.5000000  )
         8        Mo     tau(   8) = (  0.5000000  0.5000000  0.0000000  )
         9        O      tau(   9) = (  0.2500000  0.7500000  0.0000000  )
        10        O      tau(  10) = (  0.2500000  0.2500000  0.0000000  )
        11        O      tau(  11) = (  0.7500000  0.2500000  0.5000000  )
        12        O      tau(  12) = (  0.7500000  0.7500000  0.5000000  )
        13        O      tau(  13) = (  0.7500000  0.2500000  0.0000000  )
        14        O      tau(  14) = (  0.7500000  0.7500000  0.0000000  )
        15        O      tau(  15) = (  0.2500000  0.7500000  0.5000000  )
        16        O      tau(  16) = (  0.2500000  0.2500000  0.5000000  )
        17        O      tau(  17) = (  0.0000000  0.0000000  0.2500000  )
        18        O      tau(  18) = (  0.0000000  0.0000000  0.7500000  )
        19        O      tau(  19) = (  0.5000000  0.5000000  0.7500000  )
        20        O      tau(  20) = (  0.5000000  0.5000000  0.2500000  )

     number of k points=   125  Marzari-Vanderbilt smearing, width (Ry)=  0.0100
                       cart. coord. in units 2pi/alat
        k(    1) = (   0.0000000   0.0000000   0.0000000), wk =   0.0160000
        k(    2) = (   0.0000000   0.0000000   0.1454545), wk =   0.0160000
        k(    3) = (   0.0000000   0.0000000   0.2909091), wk =   0.0160000
        k(    4) = (   0.0000000   0.0000000   0.4363636), wk =   0.0160000
        k(    5) = (   0.0000000   0.0000000   0.5818182), wk =   0.0160000
        k(    6) = (   0.0000000   0.2000000   0.0000000), wk =   0.0160000
        k(    7) = (   0.0000000   0.2000000   0.1454545), wk =   0.0160000
        k(    8) = (   0.0000000   0.2000000   0.2909091), wk =   0.0160000
        k(    9) = (   0.0000000   0.2000000   0.4363636), wk =   0.0160000
        k(   10) = (   0.0000000   0.2000000   0.5818182), wk =   0.0160000
        k(   11) = (   0.0000000   0.4000000   0.0000000), wk =   0.0160000
        k(   12) = (   0.0000000   0.4000000   0.1454545), wk =   0.0160000
        k(   13) = (   0.0000000   0.4000000   0.2909091), wk =   0.0160000
        k(   14) = (   0.0000000   0.4000000   0.4363636), wk =   0.0160000
        k(   15) = (   0.0000000   0.4000000   0.5818182), wk =   0.0160000
        k(   16) = (   0.0000000   0.6000000   0.0000000), wk =   0.0160000
        k(   17) = (   0.0000000   0.6000000   0.1454545), wk =   0.0160000
        k(   18) = (   0.0000000   0.6000000   0.2909091), wk =   0.0160000
        k(   19) = (   0.0000000   0.6000000   0.4363636), wk =   0.0160000
        k(   20) = (   0.0000000   0.6000000   0.5818182), wk =   0.0160000
        k(   21) = (   0.0000000   0.8000000   0.0000000), wk =   0.0160000
        k(   22) = (   0.0000000   0.8000000   0.1454545), wk =   0.0160000
        k(   23) = (   0.0000000   0.8000000   0.2909091), wk =   0.0160000
        k(   24) = (   0.0000000   0.8000000   0.4363636), wk =   0.0160000
        k(   25) = (   0.0000000   0.8000000   0.5818182), wk =   0.0160000
        k(   26) = (   0.2000000   0.0000000   0.0000000), wk =   0.0160000
        k(   27) = (   0.2000000   0.0000000   0.1454545), wk =   0.0160000
        k(   28) = (   0.2000000   0.0000000   0.2909091), wk =   0.0160000
        k(   29) = (   0.2000000   0.0000000   0.4363636), wk =   0.0160000
        k(   30) = (   0.2000000   0.0000000   0.5818182), wk =   0.0160000
        k(   31) = (   0.2000000   0.2000000   0.0000000), wk =   0.0160000
        k(   32) = (   0.2000000   0.2000000   0.1454545), wk =   0.0160000
        k(   33) = (   0.2000000   0.2000000   0.2909091), wk =   0.0160000
        k(   34) = (   0.2000000   0.2000000   0.4363636), wk =   0.0160000
        k(   35) = (   0.2000000   0.2000000   0.5818182), wk =   0.0160000
        k(   36) = (   0.2000000   0.4000000   0.0000000), wk =   0.0160000
        k(   37) = (   0.2000000   0.4000000   0.1454545), wk =   0.0160000
        k(   38) = (   0.2000000   0.4000000   0.2909091), wk =   0.0160000
        k(   39) = (   0.2000000   0.4000000   0.4363636), wk =   0.0160000
        k(   40) = (   0.2000000   0.4000000   0.5818182), wk =   0.0160000
        k(   41) = (   0.2000000   0.6000000   0.0000000), wk =   0.0160000
        k(   42) = (   0.2000000   0.6000000   0.1454545), wk =   0.0160000
        k(   43) = (   0.2000000   0.6000000   0.2909091), wk =   0.0160000
        k(   44) = (   0.2000000   0.6000000   0.4363636), wk =   0.0160000
        k(   45) = (   0.2000000   0.6000000   0.5818182), wk =   0.0160000
        k(   46) = (   0.2000000   0.8000000   0.0000000), wk =   0.0160000
        k(   47) = (   0.2000000   0.8000000   0.1454545), wk =   0.0160000
        k(   48) = (   0.2000000   0.8000000   0.2909091), wk =   0.0160000
        k(   49) = (   0.2000000   0.8000000   0.4363636), wk =   0.0160000
        k(   50) = (   0.2000000   0.8000000   0.5818182), wk =   0.0160000
        k(   51) = (   0.4000000   0.0000000   0.0000000), wk =   0.0160000
        k(   52) = (   0.4000000   0.0000000   0.1454545), wk =   0.0160000
        k(   53) = (   0.4000000   0.0000000   0.2909091), wk =   0.0160000
        k(   54) = (   0.4000000   0.0000000   0.4363636), wk =   0.0160000
        k(   55) = (   0.4000000   0.0000000   0.5818182), wk =   0.0160000
        k(   56) = (   0.4000000   0.2000000   0.0000000), wk =   0.0160000
        k(   57) = (   0.4000000   0.2000000   0.1454545), wk =   0.0160000
        k(   58) = (   0.4000000   0.2000000   0.2909091), wk =   0.0160000
        k(   59) = (   0.4000000   0.2000000   0.4363636), wk =   0.0160000
        k(   60) = (   0.4000000   0.2000000   0.5818182), wk =   0.0160000
        k(   61) = (   0.4000000   0.4000000   0.0000000), wk =   0.0160000
        k(   62) = (   0.4000000   0.4000000   0.1454545), wk =   0.0160000
        k(   63) = (   0.4000000   0.4000000   0.2909091), wk =   0.0160000
        k(   64) = (   0.4000000   0.4000000   0.4363636), wk =   0.0160000
        k(   65) = (   0.4000000   0.4000000   0.5818182), wk =   0.0160000
        k(   66) = (   0.4000000   0.6000000   0.0000000), wk =   0.0160000
        k(   67) = (   0.4000000   0.6000000   0.1454545), wk =   0.0160000
        k(   68) = (   0.4000000   0.6000000   0.2909091), wk =   0.0160000
        k(   69) = (   0.4000000   0.6000000   0.4363636), wk =   0.0160000
        k(   70) = (   0.4000000   0.6000000   0.5818182), wk =   0.0160000
        k(   71) = (   0.4000000   0.8000000   0.0000000), wk =   0.0160000
        k(   72) = (   0.4000000   0.8000000   0.1454545), wk =   0.0160000
        k(   73) = (   0.4000000   0.8000000   0.2909091), wk =   0.0160000
        k(   74) = (   0.4000000   0.8000000   0.4363636), wk =   0.0160000
        k(   75) = (   0.4000000   0.8000000   0.5818182), wk =   0.0160000
        k(   76) = (   0.6000000   0.0000000   0.0000000), wk =   0.0160000
        k(   77) = (   0.6000000   0.0000000   0.1454545), wk =   0.0160000
        k(   78) = (   0.6000000   0.0000000   0.2909091), wk =   0.0160000
        k(   79) = (   0.6000000   0.0000000   0.4363636), wk =   0.0160000
        k(   80) = (   0.6000000   0.0000000   0.5818182), wk =   0.0160000
        k(   81) = (   0.6000000   0.2000000   0.0000000), wk =   0.0160000
        k(   82) = (   0.6000000   0.2000000   0.1454545), wk =   0.0160000
        k(   83) = (   0.6000000   0.2000000   0.2909091), wk =   0.0160000
        k(   84) = (   0.6000000   0.2000000   0.4363636), wk =   0.0160000
        k(   85) = (   0.6000000   0.2000000   0.5818182), wk =   0.0160000
        k(   86) = (   0.6000000   0.4000000   0.0000000), wk =   0.0160000
        k(   87) = (   0.6000000   0.4000000   0.1454545), wk =   0.0160000
        k(   88) = (   0.6000000   0.4000000   0.2909091), wk =   0.0160000
        k(   89) = (   0.6000000   0.4000000   0.4363636), wk =   0.0160000
        k(   90) = (   0.6000000   0.4000000   0.5818182), wk =   0.0160000
        k(   91) = (   0.6000000   0.6000000   0.0000000), wk =   0.0160000
        k(   92) = (   0.6000000   0.6000000   0.1454545), wk =   0.0160000
        k(   93) = (   0.6000000   0.6000000   0.2909091), wk =   0.0160000
        k(   94) = (   0.6000000   0.6000000   0.4363636), wk =   0.0160000
        k(   95) = (   0.6000000   0.6000000   0.5818182), wk =   0.0160000
        k(   96) = (   0.6000000   0.8000000   0.0000000), wk =   0.0160000
        k(   97) = (   0.6000000   0.8000000   0.1454545), wk =   0.0160000
        k(   98) = (   0.6000000   0.8000000   0.2909091), wk =   0.0160000
        k(   99) = (   0.6000000   0.8000000   0.4363636), wk =   0.0160000
        k(  100) = (   0.6000000   0.8000000   0.5818182), wk =   0.0160000
        k(  101) = (   0.8000000   0.0000000   0.0000000), wk =   0.0160000
        k(  102) = (   0.8000000   0.0000000   0.1454545), wk =   0.0160000
        k(  103) = (   0.8000000   0.0000000   0.2909091), wk =   0.0160000
        k(  104) = (   0.8000000   0.0000000   0.4363636), wk =   0.0160000
        k(  105) = (   0.8000000   0.0000000   0.5818182), wk =   0.0160000
        k(  106) = (   0.8000000   0.2000000   0.0000000), wk =   0.0160000
        k(  107) = (   0.8000000   0.2000000   0.1454545), wk =   0.0160000
        k(  108) = (   0.8000000   0.2000000   0.2909091), wk =   0.0160000
        k(  109) = (   0.8000000   0.2000000   0.4363636), wk =   0.0160000
        k(  110) = (   0.8000000   0.2000000   0.5818182), wk =   0.0160000
        k(  111) = (   0.8000000   0.4000000   0.0000000), wk =   0.0160000
        k(  112) = (   0.8000000   0.4000000   0.1454545), wk =   0.0160000
        k(  113) = (   0.8000000   0.4000000   0.2909091), wk =   0.0160000
        k(  114) = (   0.8000000   0.4000000   0.4363636), wk =   0.0160000
        k(  115) = (   0.8000000   0.4000000   0.5818182), wk =   0.0160000
        k(  116) = (   0.8000000   0.6000000   0.0000000), wk =   0.0160000
        k(  117) = (   0.8000000   0.6000000   0.1454545), wk =   0.0160000
        k(  118) = (   0.8000000   0.6000000   0.2909091), wk =   0.0160000
        k(  119) = (   0.8000000   0.6000000   0.4363636), wk =   0.0160000
        k(  120) = (   0.8000000   0.6000000   0.5818182), wk =   0.0160000
        k(  121) = (   0.8000000   0.8000000   0.0000000), wk =   0.0160000
        k(  122) = (   0.8000000   0.8000000   0.1454545), wk =   0.0160000
        k(  123) = (   0.8000000   0.8000000   0.2909091), wk =   0.0160000
        k(  124) = (   0.8000000   0.8000000   0.4363636), wk =   0.0160000
        k(  125) = (   0.8000000   0.8000000   0.5818182), wk =   0.0160000

                       cryst. coord.
        k(    1) = (   0.0000000   0.0000000   0.0000000), wk =   0.0160000
        k(    2) = (   0.0000000   0.0000000   0.2000000), wk =   0.0160000
        k(    3) = (   0.0000000   0.0000000   0.4000000), wk =   0.0160000
        k(    4) = (   0.0000000   0.0000000   0.6000000), wk =   0.0160000
        k(    5) = (   0.0000000   0.0000000   0.8000000), wk =   0.0160000
        k(    6) = (   0.0000000   0.2000000   0.0000000), wk =   0.0160000
        k(    7) = (   0.0000000   0.2000000   0.2000000), wk =   0.0160000
        k(    8) = (   0.0000000   0.2000000   0.4000000), wk =   0.0160000
        k(    9) = (   0.0000000   0.2000000   0.6000000), wk =   0.0160000
        k(   10) = (   0.0000000   0.2000000   0.8000000), wk =   0.0160000
        k(   11) = (   0.0000000   0.4000000   0.0000000), wk =   0.0160000
        k(   12) = (   0.0000000   0.4000000   0.2000000), wk =   0.0160000
        k(   13) = (   0.0000000   0.4000000   0.4000000), wk =   0.0160000
        k(   14) = (   0.0000000   0.4000000   0.6000000), wk =   0.0160000
        k(   15) = (   0.0000000   0.4000000   0.8000000), wk =   0.0160000
        k(   16) = (   0.0000000   0.6000000   0.0000000), wk =   0.0160000
        k(   17) = (   0.0000000   0.6000000   0.2000000), wk =   0.0160000
        k(   18) = (   0.0000000   0.6000000   0.4000000), wk =   0.0160000
        k(   19) = (   0.0000000   0.6000000   0.6000000), wk =   0.0160000
        k(   20) = (   0.0000000   0.6000000   0.8000000), wk =   0.0160000
        k(   21) = (   0.0000000   0.8000000   0.0000000), wk =   0.0160000
        k(   22) = (   0.0000000   0.8000000   0.2000000), wk =   0.0160000
        k(   23) = (   0.0000000   0.8000000   0.4000000), wk =   0.0160000
        k(   24) = (   0.0000000   0.8000000   0.6000000), wk =   0.0160000
        k(   25) = (   0.0000000   0.8000000   0.8000000), wk =   0.0160000
        k(   26) = (   0.2000000   0.0000000   0.0000000), wk =   0.0160000
        k(   27) = (   0.2000000   0.0000000   0.2000000), wk =   0.0160000
        k(   28) = (   0.2000000   0.0000000   0.4000000), wk =   0.0160000
        k(   29) = (   0.2000000   0.0000000   0.6000000), wk =   0.0160000
        k(   30) = (   0.2000000   0.0000000   0.8000000), wk =   0.0160000
        k(   31) = (   0.2000000   0.2000000   0.0000000), wk =   0.0160000
        k(   32) = (   0.2000000   0.2000000   0.2000000), wk =   0.0160000
        k(   33) = (   0.2000000   0.2000000   0.4000000), wk =   0.0160000
        k(   34) = (   0.2000000   0.2000000   0.6000000), wk =   0.0160000
        k(   35) = (   0.2000000   0.2000000   0.8000000), wk =   0.0160000
        k(   36) = (   0.2000000   0.4000000   0.0000000), wk =   0.0160000
        k(   37) = (   0.2000000   0.4000000   0.2000000), wk =   0.0160000
        k(   38) = (   0.2000000   0.4000000   0.4000000), wk =   0.0160000
        k(   39) = (   0.2000000   0.4000000   0.6000000), wk =   0.0160000
        k(   40) = (   0.2000000   0.4000000   0.8000000), wk =   0.0160000
        k(   41) = (   0.2000000   0.6000000   0.0000000), wk =   0.0160000
        k(   42) = (   0.2000000   0.6000000   0.2000000), wk =   0.0160000
        k(   43) = (   0.2000000   0.6000000   0.4000000), wk =   0.0160000
        k(   44) = (   0.2000000   0.6000000   0.6000000), wk =   0.0160000
        k(   45) = (   0.2000000   0.6000000   0.8000000), wk =   0.0160000
        k(   46) = (   0.2000000   0.8000000   0.0000000), wk =   0.0160000
        k(   47) = (   0.2000000   0.8000000   0.2000000), wk =   0.0160000
        k(   48) = (   0.2000000   0.8000000   0.4000000), wk =   0.0160000
        k(   49) = (   0.2000000   0.8000000   0.6000000), wk =   0.0160000
        k(   50) = (   0.2000000   0.8000000   0.8000000), wk =   0.0160000
        k(   51) = (   0.4000000   0.0000000   0.0000000), wk =   0.0160000
        k(   52) = (   0.4000000   0.0000000   0.2000000), wk =   0.0160000
        k(   53) = (   0.4000000   0.0000000   0.4000000), wk =   0.0160000
        k(   54) = (   0.4000000   0.0000000   0.6000000), wk =   0.0160000
        k(   55) = (   0.4000000   0.0000000   0.8000000), wk =   0.0160000
        k(   56) = (   0.4000000   0.2000000   0.0000000), wk =   0.0160000
        k(   57) = (   0.4000000   0.2000000   0.2000000), wk =   0.0160000
        k(   58) = (   0.4000000   0.2000000   0.4000000), wk =   0.0160000
        k(   59) = (   0.4000000   0.2000000   0.6000000), wk =   0.0160000
        k(   60) = (   0.4000000   0.2000000   0.8000000), wk =   0.0160000
        k(   61) = (   0.4000000   0.4000000   0.0000000), wk =   0.0160000
        k(   62) = (   0.4000000   0.4000000   0.2000000), wk =   0.0160000
        k(   63) = (   0.4000000   0.4000000   0.4000000), wk =   0.0160000
        k(   64) = (   0.4000000   0.4000000   0.6000000), wk =   0.0160000
        k(   65) = (   0.4000000   0.4000000   0.8000000), wk =   0.0160000
        k(   66) = (   0.4000000   0.6000000   0.0000000), wk =   0.0160000
        k(   67) = (   0.4000000   0.6000000   0.2000000), wk =   0.0160000
        k(   68) = (   0.4000000   0.6000000   0.4000000), wk =   0.0160000
        k(   69) = (   0.4000000   0.6000000   0.6000000), wk =   0.0160000
        k(   70) = (   0.4000000   0.6000000   0.8000000), wk =   0.0160000
        k(   71) = (   0.4000000   0.8000000   0.0000000), wk =   0.0160000
        k(   72) = (   0.4000000   0.8000000   0.2000000), wk =   0.0160000
        k(   73) = (   0.4000000   0.8000000   0.4000000), wk =   0.0160000
        k(   74) = (   0.4000000   0.8000000   0.6000000), wk =   0.0160000
        k(   75) = (   0.4000000   0.8000000   0.8000000), wk =   0.0160000
        k(   76) = (   0.6000000   0.0000000   0.0000000), wk =   0.0160000
        k(   77) = (   0.6000000   0.0000000   0.2000000), wk =   0.0160000
        k(   78) = (   0.6000000   0.0000000   0.4000000), wk =   0.0160000
        k(   79) = (   0.6000000   0.0000000   0.6000000), wk =   0.0160000
        k(   80) = (   0.6000000   0.0000000   0.8000000), wk =   0.0160000
        k(   81) = (   0.6000000   0.2000000   0.0000000), wk =   0.0160000
        k(   82) = (   0.6000000   0.2000000   0.2000000), wk =   0.0160000
        k(   83) = (   0.6000000   0.2000000   0.4000000), wk =   0.0160000
        k(   84) = (   0.6000000   0.2000000   0.6000000), wk =   0.0160000
        k(   85) = (   0.6000000   0.2000000   0.8000000), wk =   0.0160000
        k(   86) = (   0.6000000   0.4000000   0.0000000), wk =   0.0160000
        k(   87) = (   0.6000000   0.4000000   0.2000000), wk =   0.0160000
        k(   88) = (   0.6000000   0.4000000   0.4000000), wk =   0.0160000
        k(   89) = (   0.6000000   0.4000000   0.6000000), wk =   0.0160000
        k(   90) = (   0.6000000   0.4000000   0.8000000), wk =   0.0160000
        k(   91) = (   0.6000000   0.6000000   0.0000000), wk =   0.0160000
        k(   92) = (   0.6000000   0.6000000   0.2000000), wk =   0.0160000
        k(   93) = (   0.6000000   0.6000000   0.4000000), wk =   0.0160000
        k(   94) = (   0.6000000   0.6000000   0.6000000), wk =   0.0160000
        k(   95) = (   0.6000000   0.6000000   0.8000000), wk =   0.0160000
        k(   96) = (   0.6000000   0.8000000   0.0000000), wk =   0.0160000
        k(   97) = (   0.6000000   0.8000000   0.2000000), wk =   0.0160000
        k(   98) = (   0.6000000   0.8000000   0.4000000), wk =   0.0160000
        k(   99) = (   0.6000000   0.8000000   0.6000000), wk =   0.0160000
        k(  100) = (   0.6000000   0.8000000   0.8000000), wk =   0.0160000
        k(  101) = (   0.8000000   0.0000000   0.0000000), wk =   0.0160000
        k(  102) = (   0.8000000   0.0000000   0.2000000), wk =   0.0160000
        k(  103) = (   0.8000000   0.0000000   0.4000000), wk =   0.0160000
        k(  104) = (   0.8000000   0.0000000   0.6000000), wk =   0.0160000
        k(  105) = (   0.8000000   0.0000000   0.8000000), wk =   0.0160000
        k(  106) = (   0.8000000   0.2000000   0.0000000), wk =   0.0160000
        k(  107) = (   0.8000000   0.2000000   0.2000000), wk =   0.0160000
        k(  108) = (   0.8000000   0.2000000   0.4000000), wk =   0.0160000
        k(  109) = (   0.8000000   0.2000000   0.6000000), wk =   0.0160000
        k(  110) = (   0.8000000   0.2000000   0.8000000), wk =   0.0160000
        k(  111) = (   0.8000000   0.4000000   0.0000000), wk =   0.0160000
        k(  112) = (   0.8000000   0.4000000   0.2000000), wk =   0.0160000
        k(  113) = (   0.8000000   0.4000000   0.4000000), wk =   0.0160000
        k(  114) = (   0.8000000   0.4000000   0.6000000), wk =   0.0160000
        k(  115) = (   0.8000000   0.4000000   0.8000000), wk =   0.0160000
        k(  116) = (   0.8000000   0.6000000   0.0000000), wk =   0.0160000
        k(  117) = (   0.8000000   0.6000000   0.2000000), wk =   0.0160000
        k(  118) = (   0.8000000   0.6000000   0.4000000), wk =   0.0160000
        k(  119) = (   0.8000000   0.6000000   0.6000000), wk =   0.0160000
        k(  120) = (   0.8000000   0.6000000   0.8000000), wk =   0.0160000
        k(  121) = (   0.8000000   0.8000000   0.0000000), wk =   0.0160000
        k(  122) = (   0.8000000   0.8000000   0.2000000), wk =   0.0160000
        k(  123) = (   0.8000000   0.8000000   0.4000000), wk =   0.0160000
        k(  124) = (   0.8000000   0.8000000   0.6000000), wk =   0.0160000
        k(  125) = (   0.8000000   0.8000000   0.8000000), wk =   0.0160000

     Dense  grid:   445525 G-vectors     FFT dimensions: (  90,  90, 120)

     Smooth grid:   157471 G-vectors     FFT dimensions: (  64,  64,  90)

     Dynamical RAM for                 wfc:       1.09 MB

     Dynamical RAM for     wfc (w. buffer):       1.09 MB

     Dynamical RAM for           str. fact:       0.64 MB

     Dynamical RAM for           local pot:       0.00 MB

     Dynamical RAM for          nlocal pot:       2.25 MB

     Dynamical RAM for                qrad:       6.09 MB

     Dynamical RAM for          rho,v,vnew:       1.38 MB

     Dynamical RAM for           G-vectors:       0.83 MB

     Dynamical RAM for          h,s,v(r/c):      39.42 MB

     Dynamical RAM for          <psi|beta>:       0.42 MB

     Dynamical RAM for                 psi:       8.71 MB

     Dynamical RAM for                hpsi:       8.71 MB

     Dynamical RAM for                spsi:       8.71 MB

     Dynamical RAM for      wfcinit/wfcrot:       2.58 MB

     Dynamical RAM for           addusdens:      42.06 MB

     Estimated static dynamical RAM per process >      14.36 MB

     Estimated max dynamical RAM per process >      80.34 MB

     Estimated total dynamical RAM >       2.51 GB

     The potential is recalculated from file :
     ./out/smo.save/charge-density

     Starting wfcs are  120 randomized atomic wfcs
     Checking if some PAW data can be deallocated... 
       PAW data deallocated on   24 nodes for type:  1
       PAW data deallocated on   24 nodes for type:  2
       PAW data deallocated on   16 nodes for type:  3

     Band Structure Calculation
     Davidson diagonalization with overlap

     Computing kpt #:     1  of   125
     total cpu time spent up to now is        4.9 secs

     Computing kpt #:     2  of   125
     total cpu time spent up to now is        7.7 secs

     Computing kpt #:     3  of   125
     total cpu time spent up to now is       10.5 secs

     Computing kpt #:     4  of   125
     total cpu time spent up to now is       13.3 secs

     Computing kpt #:     5  of   125
     total cpu time spent up to now is       16.2 secs

     Computing kpt #:     6  of   125
     total cpu time spent up to now is       18.9 secs

     Computing kpt #:     7  of   125
     total cpu time spent up to now is       21.7 secs

     Computing kpt #:     8  of   125
     total cpu time spent up to now is       24.4 secs

     Computing kpt #:     9  of   125
     total cpu time spent up to now is       27.0 secs

     Computing kpt #:    10  of   125
     total cpu time spent up to now is       29.8 secs

     Computing kpt #:    11  of   125
     total cpu time spent up to now is       32.4 secs

     Computing kpt #:    12  of   125
     total cpu time spent up to now is       38.2 secs

     Computing kpt #:    13  of   125
     total cpu time spent up to now is       40.9 secs

     Computing kpt #:    14  of   125
     total cpu time spent up to now is       43.5 secs

     Computing kpt #:    15  of   125
     total cpu time spent up to now is       47.3 secs

     Computing kpt #:    16  of   125
     total cpu time spent up to now is       49.9 secs

     Computing kpt #:    17  of   125
     total cpu time spent up to now is       54.2 secs

     Computing kpt #:    18  of   125
     total cpu time spent up to now is       56.9 secs

     Computing kpt #:    19  of   125
     total cpu time spent up to now is       59.5 secs

     Computing kpt #:    20  of   125
     total cpu time spent up to now is       62.2 secs

     Computing kpt #:    21  of   125
     total cpu time spent up to now is       64.8 secs

     Computing kpt #:    22  of   125
     total cpu time spent up to now is       67.6 secs

     Computing kpt #:    23  of   125
     total cpu time spent up to now is       70.2 secs

     Computing kpt #:    24  of   125
     total cpu time spent up to now is       72.8 secs

     Computing kpt #:    25  of   125
     total cpu time spent up to now is       76.4 secs

     Computing kpt #:    26  of   125
     total cpu time spent up to now is       79.1 secs

     Computing kpt #:    27  of   125
     total cpu time spent up to now is       84.3 secs

     Computing kpt #:    28  of   125
     total cpu time spent up to now is       87.0 secs

     Computing kpt #:    29  of   125
     total cpu time spent up to now is       89.8 secs

     Computing kpt #:    30  of   125
     total cpu time spent up to now is       93.7 secs

     Computing kpt #:    31  of   125
     total cpu time spent up to now is       99.8 secs

     Computing kpt #:    32  of   125
     total cpu time spent up to now is      102.6 secs

     Computing kpt #:    33  of   125
     total cpu time spent up to now is      105.4 secs

     Computing kpt #:    34  of   125
     total cpu time spent up to now is      108.1 secs

     Computing kpt #:    35  of   125
     total cpu time spent up to now is      110.7 secs

     Computing kpt #:    36  of   125
     total cpu time spent up to now is      113.4 secs

     Computing kpt #:    37  of   125
     total cpu time spent up to now is      116.1 secs

     Computing kpt #:    38  of   125
     total cpu time spent up to now is      118.8 secs

     Computing kpt #:    39  of   125
     total cpu time spent up to now is      121.6 secs

     Computing kpt #:    40  of   125
     total cpu time spent up to now is      124.5 secs

     Computing kpt #:    41  of   125
     total cpu time spent up to now is      127.3 secs

     Computing kpt #:    42  of   125
     total cpu time spent up to now is      129.9 secs

     Computing kpt #:    43  of   125
     total cpu time spent up to now is      132.6 secs

     Computing kpt #:    44  of   125
     total cpu time spent up to now is      135.2 secs

     Computing kpt #:    45  of   125
     total cpu time spent up to now is      137.7 secs

     Computing kpt #:    46  of   125
     total cpu time spent up to now is      142.5 secs

     Computing kpt #:    47  of   125
     total cpu time spent up to now is      145.1 secs

     Computing kpt #:    48  of   125
     total cpu time spent up to now is      147.8 secs

     Computing kpt #:    49  of   125
     total cpu time spent up to now is      150.7 secs

     Computing kpt #:    50  of   125
     total cpu time spent up to now is      153.3 secs

     Computing kpt #:    51  of   125
     total cpu time spent up to now is      156.1 secs

     Computing kpt #:    52  of   125
     total cpu time spent up to now is      158.9 secs

     Computing kpt #:    53  of   125
     total cpu time spent up to now is      161.7 secs

     Computing kpt #:    54  of   125
     total cpu time spent up to now is      164.6 secs

     Computing kpt #:    55  of   125
     c_bands:  1 eigenvalues not converged
     total cpu time spent up to now is      172.5 secs

     Computing kpt #:    56  of   125
     total cpu time spent up to now is      175.2 secs

     Computing kpt #:    57  of   125
     total cpu time spent up to now is      177.8 secs

     Computing kpt #:    58  of   125
     total cpu time spent up to now is      180.4 secs

     Computing kpt #:    59  of   125
     total cpu time spent up to now is      183.0 secs

     Computing kpt #:    60  of   125
     total cpu time spent up to now is      185.5 secs

     Computing kpt #:    61  of   125
     total cpu time spent up to now is      188.2 secs

     Computing kpt #:    62  of   125
     total cpu time spent up to now is      190.9 secs

     Computing kpt #:    63  of   125
     total cpu time spent up to now is      193.5 secs

     Computing kpt #:    64  of   125
     total cpu time spent up to now is      196.1 secs

     Computing kpt #:    65  of   125
     total cpu time spent up to now is      198.6 secs

     Computing kpt #:    66  of   125
     total cpu time spent up to now is      201.3 secs

     Computing kpt #:    67  of   125
     total cpu time spent up to now is      203.9 secs

     Computing kpt #:    68  of   125
     total cpu time spent up to now is      206.6 secs

     Computing kpt #:    69  of   125
     total cpu time spent up to now is      209.4 secs

     Computing kpt #:    70  of   125
     total cpu time spent up to now is      212.1 secs

     Computing kpt #:    71  of   125
     total cpu time spent up to now is      214.7 secs

     Computing kpt #:    72  of   125
     total cpu time spent up to now is      217.3 secs

     Computing kpt #:    73  of   125
     total cpu time spent up to now is      219.9 secs

     Computing kpt #:    74  of   125
     total cpu time spent up to now is      222.4 secs

     Computing kpt #:    75  of   125
     total cpu time spent up to now is      225.0 secs

     Computing kpt #:    76  of   125
     total cpu time spent up to now is      228.9 secs

     Computing kpt #:    77  of   125
     c_bands:  1 eigenvalues not converged
     total cpu time spent up to now is      236.0 secs

     Computing kpt #:    78  of   125
     total cpu time spent up to now is      238.6 secs

     Computing kpt #:    79  of   125
     total cpu time spent up to now is      241.3 secs

     Computing kpt #:    80  of   125
     total cpu time spent up to now is      245.0 secs

     Computing kpt #:    81  of   125
     total cpu time spent up to now is      247.8 secs

     Computing kpt #:    82  of   125
     total cpu time spent up to now is      250.5 secs

     Computing kpt #:    83  of   125
     total cpu time spent up to now is      253.1 secs

     Computing kpt #:    84  of   125
     total cpu time spent up to now is      255.8 secs

     Computing kpt #:    85  of   125
     total cpu time spent up to now is      258.5 secs

     Computing kpt #:    86  of   125
     total cpu time spent up to now is      261.1 secs

     Computing kpt #:    87  of   125
     total cpu time spent up to now is      263.7 secs

     Computing kpt #:    88  of   125
     total cpu time spent up to now is      266.4 secs

     Computing kpt #:    89  of   125
     total cpu time spent up to now is      269.1 secs

     Computing kpt #:    90  of   125
     total cpu time spent up to now is      271.7 secs

     Computing kpt #:    91  of   125
     total cpu time spent up to now is      274.6 secs

     Computing kpt #:    92  of   125
     total cpu time spent up to now is      277.5 secs

     Computing kpt #:    93  of   125
     total cpu time spent up to now is      280.5 secs

     Computing kpt #:    94  of   125
     total cpu time spent up to now is      283.4 secs

     Computing kpt #:    95  of   125
     total cpu time spent up to now is      286.1 secs

     Computing kpt #:    96  of   125
     total cpu time spent up to now is      288.7 secs

     Computing kpt #:    97  of   125
     total cpu time spent up to now is      291.2 secs

     Computing kpt #:    98  of   125
     total cpu time spent up to now is      293.7 secs

     Computing kpt #:    99  of   125
     total cpu time spent up to now is      296.3 secs

     Computing kpt #:   100  of   125
     total cpu time spent up to now is      298.9 secs

     Computing kpt #:   101  of   125
     total cpu time spent up to now is      301.5 secs

     Computing kpt #:   102  of   125
     total cpu time spent up to now is      305.0 secs

     Computing kpt #:   103  of   125
     total cpu time spent up to now is      307.7 secs

     Computing kpt #:   104  of   125
     total cpu time spent up to now is      310.3 secs

     Computing kpt #:   105  of   125
     total cpu time spent up to now is      313.2 secs

     Computing kpt #:   106  of   125
     total cpu time spent up to now is      319.6 secs

     Computing kpt #:   107  of   125
     total cpu time spent up to now is      322.5 secs

     Computing kpt #:   108  of   125
     total cpu time spent up to now is      325.5 secs

     Computing kpt #:   109  of   125
     total cpu time spent up to now is      328.3 secs

     Computing kpt #:   110  of   125
     total cpu time spent up to now is      330.9 secs

     Computing kpt #:   111  of   125
     total cpu time spent up to now is      333.4 secs

     Computing kpt #:   112  of   125
     total cpu time spent up to now is      335.9 secs

     Computing kpt #:   113  of   125
     total cpu time spent up to now is      338.5 secs

     Computing kpt #:   114  of   125
     total cpu time spent up to now is      341.0 secs

     Computing kpt #:   115  of   125
     total cpu time spent up to now is      343.6 secs

     Computing kpt #:   116  of   125
     total cpu time spent up to now is      346.4 secs

     Computing kpt #:   117  of   125
     total cpu time spent up to now is      349.0 secs

     Computing kpt #:   118  of   125
     total cpu time spent up to now is      351.5 secs

     Computing kpt #:   119  of   125
     total cpu time spent up to now is      354.1 secs

     Computing kpt #:   120  of   125
     total cpu time spent up to now is      356.7 secs

     Computing kpt #:   121  of   125
     total cpu time spent up to now is      361.2 secs

     Computing kpt #:   122  of   125
     total cpu time spent up to now is      363.9 secs

     Computing kpt #:   123  of   125
     total cpu time spent up to now is      366.5 secs

     Computing kpt #:   124  of   125
     total cpu time spent up to now is      369.2 secs

     Computing kpt #:   125  of   125
     total cpu time spent up to now is      371.8 secs

     ethr =  5.95E-12,  avg # of iterations = 20.3

     total cpu time spent up to now is      371.8 secs

     End of band structure calculation

          k = 0.0000 0.0000 0.0000 ( 19725 PWs)   bands (ev):

   -48.2468 -48.2446 -48.2440 -48.2418 -22.7430 -22.7223 -22.6085 -22.6013
   -22.5546 -22.5546 -22.5480 -22.5480 -22.4719 -22.4719 -22.4663 -22.4663
   -21.4826 -21.4438 -21.4395 -21.4210  -6.4822  -6.3919  -6.1459  -5.7054
    -5.4897  -5.4421  -5.2517  -5.2517  -4.8921  -4.8619  -4.6963  -4.6963
    -3.8295  -3.7970  -3.7970  -3.5347  -3.5347  -3.4843  -3.4843  -3.4825
    -3.3854  -3.0335  -3.0335  -2.9384   5.2752   5.3384   5.7243   5.7472
     5.8969   5.9213   6.1328   6.5223   6.5223   6.8775   7.7327   7.7327
     7.7357   7.7357   8.2546   8.2546   8.2596   8.2596   8.3813   8.4253
     8.8164   9.0116   9.0116   9.3073   9.5351   9.5351   9.7014  10.0555
    10.0555  10.3113  10.3292  10.3292  10.7296  10.7963  10.7963  10.8328
    12.2297  12.2364  12.2364  12.4910  15.0127  15.0127  15.3227  15.3227
    15.7965  16.0848  16.1658  16.1753  16.2042  16.3361  16.3361  16.3504
    16.4100  16.8587  17.6073  17.8036  17.8036  17.8791  18.3096  18.3810
    18.7668  18.7802  19.0681  19.0729  19.6084  19.6641  19.6641  20.3562
    20.3562  20.3610  20.5514  20.7261

     occupation numbers 
     1.0000   1.0000   1.0000   1.0000   1.0000   1.0000   1.0000   1.0000
     1.0000   1.0000   1.0000   1.0000   1.0000   1.0000   1.0000   1.0000
     1.0000   1.0000   1.0000   1.0000   1.0000   1.0000   1.0000   1.0000
     1.0000   1.0000   1.0000   1.0000   1.0000   1.0000   1.0000   1.0000
     1.0000   1.0000   1.0000   1.0000   1.0000   1.0000   1.0000   1.0000
     1.0000   1.0000   1.0000   1.0000   1.0000   1.0000   1.0000   1.0000
     1.0000   1.0000   1.0000   1.0000   1.0000   1.0000   1.0000   1.0000
     1.0000   1.0000   1.0000   1.0000   1.0000   1.0000   1.0000   1.0000
     1.0000   1.0000   1.0000   1.0000   1.0000   1.0000   1.0000   1.0000
     1.0000   1.0000   1.0000   1.0000   1.0000   1.0000   1.0000   1.0000
     1.0000   1.0000   1.0000   1.0000   0.0000   0.0000   0.0000   0.0000
     0.0000   0.0000   0.0000   0.0000   0.0000   0.0000   0.0000   0.0000
     0.0000   0.0000   0.0000   0.0000   0.0000   0.0000   0.0000   0.0000
     0.0000   0.0000   0.0000   0.0000   0.0000   0.0000   0.0000   0.0000
     0.0000   0.0000   0.0000   0.0000

          k = 0.0000 0.0000 0.1455 ( 19697 PWs)   bands (ev):

   -48.2466 -48.2448 -48.2438 -48.2421 -22.7306 -22.7109 -22.6218 -22.6131
   -22.5539 -22.5539 -22.5486 -22.5486 -22.4714 -22.4714 -22.4668 -22.4668
   -21.4783 -21.4435 -21.4416 -21.4232  -6.4455  -6.3385  -6.0395  -5.7153
    -5.4852  -5.4467  -5.2154  -5.2154  -5.0253  -5.0054  -4.7826  -4.7826
    -3.7897  -3.6913  -3.6913  -3.5299  -3.5299  -3.4892  -3.4892  -3.4307
    -3.4210  -3.0901  -3.0901  -2.9831   5.5332   5.6444   5.7265   5.7450
     5.9013   6.0136   6.1918   6.5915   6.5915   6.7868   7.5047   7.5047
     7.7972   7.7972   8.1737   8.2162   8.2162   8.3262   8.3262   8.4843
     8.8486   8.8890   9.2962   9.2962   9.3247   9.3247   9.6014   9.9448
    10.0700  10.0700  10.2675  10.2675  10.6739  10.6739  10.7392  10.8227
    12.2530  12.4642  12.6172  12.6172  15.0475  15.0475  15.0992  15.0992
    15.8345  16.1313  16.1313  16.1337  16.1832  16.2024  16.2711  16.5397
    16.6941  17.2657  17.6839  18.0468  18.0630  18.0630  18.1597  18.1796
    18.8256  18.8451  18.8969  19.1704  19.5252  19.7514  19.7514  20.2632
    20.2632  20.3227  20.3227  20.3879

     occupation numbers 
     1.0000   1.0000   1.0000   1.0000   1.0000   1.0000   1.0000   1.0000
     1.0000   1.0000   1.0000   1.0000   1.0000   1.0000   1.0000   1.0000
     1.0000   1.0000   1.0000   1.0000   1.0000   1.0000   1.0000   1.0000
     1.0000   1.0000   1.0000   1.0000   1.0000   1.0000   1.0000   1.0000
     1.0000   1.0000   1.0000   1.0000   1.0000   1.0000   1.0000   1.0000
     1.0000   1.0000   1.0000   1.0000   1.0000   1.0000   1.0000   1.0000
     1.0000   1.0000   1.0000   1.0000   1.0000   1.0000   1.0000   1.0000
     1.0000   1.0000   1.0000   1.0000   1.0000   1.0000   1.0000   1.0000
     1.0000   1.0000   1.0000   1.0000   1.0000   1.0000   1.0000   1.0000
     1.0000   1.0000   1.0000   1.0000   1.0000   1.0000   1.0000   1.0000
     1.0000   1.0000   1.0000   1.0000   0.0000   0.0000   0.0000   0.0000
     0.0000   0.0000   0.0000   0.0000   0.0000   0.0000   0.0000   0.0000
     0.0000   0.0000   0.0000   0.0000   0.0000   0.0000   0.0000   0.0000
     0.0000   0.0000   0.0000   0.0000   0.0000   0.0000   0.0000   0.0000
     0.0000   0.0000   0.0000   0.0000

          k = 0.0000 0.0000 0.2909 ( 19634 PWs)   bands (ev):

   -48.2460 -48.2453 -48.2433 -48.2426 -22.6976 -22.6810 -22.6560 -22.6436
   -22.5523 -22.5523 -22.5503 -22.5503 -22.4700 -22.4700 -22.4682 -22.4682
   -21.4672 -21.4539 -21.4359 -21.4289  -6.3551  -6.2865  -5.7479  -5.6280
    -5.4734  -5.4587  -5.3556  -5.3380  -5.1107  -5.1107  -4.9532  -4.9532
    -3.6831  -3.5461  -3.5174  -3.5174  -3.5019  -3.5019  -3.4694  -3.4694
    -3.2720  -3.2475  -3.2475  -3.1061   5.7322   5.7393   5.8610   5.9061
     6.2539   6.4460   6.5489   6.7130   6.7955   6.7955   7.1185   7.1185
     7.4318   7.7981   7.9473   7.9473   8.1065   8.1065   8.5376   8.5376
     8.7878   8.9014   8.9014   9.0887   9.2903   9.3588   9.8289   9.8289
    10.1128  10.1128  10.1806  10.1806  10.3292  10.3292  10.7646  10.7965
    12.3154  12.3960  13.4429  13.4429  14.3403  14.3403  15.3506  15.3506
    15.7283  15.7283  15.9316  16.0461  16.1909  16.1974  16.7659  17.0417
    17.3211  17.4348  17.6646  17.8897  18.1271  18.1411  18.2700  18.6655
    18.6655  19.0515  19.3109  19.3663  19.4436  19.4436  19.4682  19.8245
    19.9531  19.9655  19.9655  20.1904

     occupation numbers 
     1.0000   1.0000   1.0000   1.0000   1.0000   1.0000   1.0000   1.0000
     1.0000   1.0000   1.0000   1.0000   1.0000   1.0000   1.0000   1.0000
     1.0000   1.0000   1.0000   1.0000   1.0000   1.0000   1.0000   1.0000
     1.0000   1.0000   1.0000   1.0000   1.0000   1.0000   1.0000   1.0000
     1.0000   1.0000   1.0000   1.0000   1.0000   1.0000   1.0000   1.0000
     1.0000   1.0000   1.0000   1.0000   1.0000   1.0000   1.0000   1.0000
     1.0000   1.0000   1.0000   1.0000   1.0000   1.0000   1.0000   1.0000
     1.0000   1.0000   1.0000   1.0000   1.0000   1.0000   1.0000   1.0000
     1.0000   1.0000   1.0000   1.0000   1.0000   1.0000   1.0000   1.0000
     1.0000   1.0000   1.0000   1.0000   1.0000   1.0000   1.0000   1.0000
     1.0000   1.0000   1.0000   1.0000   0.3496   0.3496   0.0000   0.0000
     0.0000   0.0000   0.0000   0.0000   0.0000   0.0000   0.0000   0.0000
     0.0000   0.0000   0.0000   0.0000   0.0000   0.0000   0.0000   0.0000
     0.0000   0.0000   0.0000   0.0000   0.0000   0.0000   0.0000   0.0000
     0.0000   0.0000   0.0000   0.0000

          k = 0.0000 0.0000 0.4364 ( 19634 PWs)   bands (ev):

   -48.2460 -48.2453 -48.2433 -48.2426 -22.6976 -22.6810 -22.6560 -22.6436
   -22.5523 -22.5523 -22.5503 -22.5503 -22.4700 -22.4700 -22.4682 -22.4682
   -21.4672 -21.4539 -21.4359 -21.4289  -6.3551  -6.2865  -5.7479  -5.6280
    -5.4734  -5.4587  -5.3556  -5.3380  -5.1107  -5.1107  -4.9532  -4.9532
    -3.6831  -3.5461  -3.5174  -3.5174  -3.5019  -3.5019  -3.4694  -3.4694
    -3.2720  -3.2475  -3.2475  -3.1061   5.7322   5.7393   5.8610   5.9061
     6.2539   6.4460   6.5489   6.7130   6.7955   6.7955   7.1185   7.1185
     7.4318   7.7981   7.9473   7.9473   8.1065   8.1065   8.5376   8.5376
     8.7878   8.9014   8.9014   9.0887   9.2903   9.3588   9.8289   9.8289
    10.1128  10.1128  10.1806  10.1806  10.3292  10.3292  10.7646  10.7965
    12.3154  12.3960  13.4429  13.4429  14.3403  14.3403  15.3506  15.3506
    15.7283  15.7283  15.9316  16.0461  16.1909  16.1974  16.7659  17.0417
    17.3211  17.4348  17.6646  17.8897  18.1271  18.1411  18.2700  18.6655
    18.6655  19.0515  19.3109  19.3663  19.4436  19.4436  19.4682  19.8245
    19.9531  19.9655  19.9655  20.1904

     occupation numbers 
     1.0000   1.0000   1.0000   1.0000   1.0000   1.0000   1.0000   1.0000
     1.0000   1.0000   1.0000   1.0000   1.0000   1.0000   1.0000   1.0000
     1.0000   1.0000   1.0000   1.0000   1.0000   1.0000   1.0000   1.0000
     1.0000   1.0000   1.0000   1.0000   1.0000   1.0000   1.0000   1.0000
     1.0000   1.0000   1.0000   1.0000   1.0000   1.0000   1.0000   1.0000
     1.0000   1.0000   1.0000   1.0000   1.0000   1.0000   1.0000   1.0000
     1.0000   1.0000   1.0000   1.0000   1.0000   1.0000   1.0000   1.0000
     1.0000   1.0000   1.0000   1.0000   1.0000   1.0000   1.0000   1.0000
     1.0000   1.0000   1.0000   1.0000   1.0000   1.0000   1.0000   1.0000
     1.0000   1.0000   1.0000   1.0000   1.0000   1.0000   1.0000   1.0000
     1.0000   1.0000   1.0000   1.0000   0.3496   0.3496   0.0000   0.0000
     0.0000   0.0000   0.0000   0.0000   0.0000   0.0000   0.0000   0.0000
     0.0000   0.0000   0.0000   0.0000   0.0000   0.0000   0.0000   0.0000
     0.0000   0.0000   0.0000   0.0000   0.0000   0.0000   0.0000   0.0000
     0.0000   0.0000   0.0000   0.0000

          k = 0.0000 0.0000 0.5818 ( 19697 PWs)   bands (ev):

   -48.2466 -48.2448 -48.2438 -48.2421 -22.7306 -22.7109 -22.6218 -22.6131
   -22.5539 -22.5539 -22.5486 -22.5486 -22.4714 -22.4714 -22.4668 -22.4668
   -21.4783 -21.4435 -21.4416 -21.4232  -6.4455  -6.3385  -6.0395  -5.7153
    -5.4852  -5.4467  -5.2154  -5.2154  -5.0253  -5.0054  -4.7826  -4.7826
    -3.7897  -3.6913  -3.6913  -3.5299  -3.5299  -3.4892  -3.4892  -3.4307
    -3.4210  -3.0901  -3.0901  -2.9831   5.5332   5.6444   5.7265   5.7450
     5.9013   6.0136   6.1918   6.5915   6.5915   6.7868   7.5047   7.5047
     7.7972   7.7972   8.1737   8.2162   8.2162   8.3262   8.3262   8.4843
     8.8486   8.8890   9.2962   9.2962   9.3247   9.3247   9.6014   9.9448
    10.0700  10.0700  10.2675  10.2675  10.6739  10.6739  10.7392  10.8227
    12.2530  12.4642  12.6172  12.6172  15.0475  15.0475  15.0992  15.0992
    15.8345  16.1313  16.1313  16.1337  16.1832  16.2024  16.2711  16.5397
    16.6941  17.2657  17.6839  18.0468  18.0630  18.0630  18.1597  18.1796
    18.8256  18.8451  18.8969  19.1704  19.5252  19.7514  19.7514  20.2632
    20.2632  20.3227  20.3227  20.3879

     occupation numbers 
     1.0000   1.0000   1.0000   1.0000   1.0000   1.0000   1.0000   1.0000
     1.0000   1.0000   1.0000   1.0000   1.0000   1.0000   1.0000   1.0000
     1.0000   1.0000   1.0000   1.0000   1.0000   1.0000   1.0000   1.0000
     1.0000   1.0000   1.0000   1.0000   1.0000   1.0000   1.0000   1.0000
     1.0000   1.0000   1.0000   1.0000   1.0000   1.0000   1.0000   1.0000
     1.0000   1.0000   1.0000   1.0000   1.0000   1.0000   1.0000   1.0000
     1.0000   1.0000   1.0000   1.0000   1.0000   1.0000   1.0000   1.0000
     1.0000   1.0000   1.0000   1.0000   1.0000   1.0000   1.0000   1.0000
     1.0000   1.0000   1.0000   1.0000   1.0000   1.0000   1.0000   1.0000
     1.0000   1.0000   1.0000   1.0000   1.0000   1.0000   1.0000   1.0000
     1.0000   1.0000   1.0000   1.0000   0.0000   0.0000   0.0000   0.0000
     0.0000   0.0000   0.0000   0.0000   0.0000   0.0000   0.0000   0.0000
     0.0000   0.0000   0.0000   0.0000   0.0000   0.0000   0.0000   0.0000
     0.0000   0.0000   0.0000   0.0000   0.0000   0.0000   0.0000   0.0000
     0.0000   0.0000   0.0000   0.0000

          k = 0.0000 0.2000 0.0000 ( 19668 PWs)   bands (ev):

   -48.2465 -48.2443 -48.2443 -48.2421 -22.7401 -22.7233 -22.6078 -22.6020
   -22.5495 -22.5467 -22.5405 -22.5403 -22.4829 -22.4799 -22.4744 -22.4742
   -21.4751 -21.4440 -21.4390 -21.4240  -6.4128  -6.3548  -6.2353  -5.6454
    -5.4642  -5.3785  -5.2713  -5.2359  -4.9710  -4.9699  -4.9617  -4.7766
    -3.7678  -3.6552  -3.6287  -3.5148  -3.4981  -3.4750  -3.4461  -3.3966
    -3.3894  -3.0950  -3.0664  -2.9915   5.2951   5.3332   5.9880   6.0111
     6.0988   6.2146   6.3896   6.4234   6.5693   6.9865   7.1039   7.4278
     7.8193   7.8543   7.9792   8.0178   8.1221   8.1958   8.3798   8.8977
     9.0015   9.0260   9.0657   9.2306   9.3570   9.3677   9.5178   9.5196
     9.7585   9.8140  10.0216  10.1366  10.5869  10.6012  10.6276  10.7085
    12.5384  12.6472  12.8161  13.0410  14.7501  14.8141  15.3374  15.3483
    15.5049  15.8352  16.1210  16.1768  16.4239  16.6575  16.7445  16.8399
    16.8425  17.1944  17.8479  18.0624  18.0759  18.1409  18.5260  18.5641
    18.7592  18.9728  19.0933  19.2654  19.6134  19.7389  19.7542  20.1351
    20.1910  20.2803  20.3327  20.3640

     occupation numbers 
     1.0000   1.0000   1.0000   1.0000   1.0000   1.0000   1.0000   1.0000
     1.0000   1.0000   1.0000   1.0000   1.0000   1.0000   1.0000   1.0000
     1.0000   1.0000   1.0000   1.0000   1.0000   1.0000   1.0000   1.0000
     1.0000   1.0000   1.0000   1.0000   1.0000   1.0000   1.0000   1.0000
     1.0000   1.0000   1.0000   1.0000   1.0000   1.0000   1.0000   1.0000
     1.0000   1.0000   1.0000   1.0000   1.0000   1.0000   1.0000   1.0000
     1.0000   1.0000   1.0000   1.0000   1.0000   1.0000   1.0000   1.0000
     1.0000   1.0000   1.0000   1.0000   1.0000   1.0000   1.0000   1.0000
     1.0000   1.0000   1.0000   1.0000   1.0000   1.0000   1.0000   1.0000
     1.0000   1.0000   1.0000   1.0000   1.0000   1.0000   1.0000   1.0000
     1.0000   1.0000   1.0000   1.0000   0.0000   0.0000   0.0000   0.0000
     0.0000   0.0000   0.0000   0.0000   0.0000   0.0000   0.0000   0.0000
     0.0000   0.0000   0.0000   0.0000   0.0000   0.0000   0.0000   0.0000
     0.0000   0.0000   0.0000   0.0000   0.0000   0.0000   0.0000   0.0000
     0.0000   0.0000   0.0000   0.0000

          k = 0.0000 0.2000 0.1455 ( 19679 PWs)   bands (ev):

   -48.2463 -48.2445 -48.2441 -48.2423 -22.7278 -22.7119 -22.6208 -22.6138
   -22.5486 -22.5461 -22.5413 -22.5409 -22.4821 -22.4793 -22.4752 -22.4747
   -21.4715 -21.4423 -21.4421 -21.4260  -6.3462  -6.3238  -6.1333  -5.6628
    -5.4563  -5.3869  -5.2374  -5.2062  -5.1573  -5.0931  -4.9357  -4.8481
    -3.7168  -3.6795  -3.5129  -3.4994  -3.4980  -3.4932  -3.4526  -3.4062
    -3.3713  -3.1461  -3.0917  -3.0243   5.5820   5.6387   5.9900   6.0087
     6.1268   6.2597   6.3560   6.5466   6.6417   6.9291   7.1938   7.5069
     7.5584   7.6043   7.8724   8.0724   8.0849   8.1853   8.2238   8.8393
     8.9290   8.9852   9.0402   9.2646   9.2999   9.3181   9.5464   9.6587
     9.6991   9.7773   9.9481   9.9867  10.5259  10.5261  10.5930  10.6821
    12.7737  12.8895  12.9044  13.0171  14.8412  14.8984  15.0701  15.0729
    15.5392  15.8015  15.9354  15.9643  16.6057  16.8155  16.8422  16.8645
    17.0806  17.4852  18.1077  18.2299  18.2937  18.3014  18.3073  18.3658
    18.8420  18.9863  19.0293  19.1404  19.6260  19.7768  19.8271  19.9176
    19.9380  20.1585  20.1608  20.3175

     occupation numbers 
     1.0000   1.0000   1.0000   1.0000   1.0000   1.0000   1.0000   1.0000
     1.0000   1.0000   1.0000   1.0000   1.0000   1.0000   1.0000   1.0000
     1.0000   1.0000   1.0000   1.0000   1.0000   1.0000   1.0000   1.0000
     1.0000   1.0000   1.0000   1.0000   1.0000   1.0000   1.0000   1.0000
     1.0000   1.0000   1.0000   1.0000   1.0000   1.0000   1.0000   1.0000
     1.0000   1.0000   1.0000   1.0000   1.0000   1.0000   1.0000   1.0000
     1.0000   1.0000   1.0000   1.0000   1.0000   1.0000   1.0000   1.0000
     1.0000   1.0000   1.0000   1.0000   1.0000   1.0000   1.0000   1.0000
     1.0000   1.0000   1.0000   1.0000   1.0000   1.0000   1.0000   1.0000
     1.0000   1.0000   1.0000   1.0000   1.0000   1.0000   1.0000   1.0000
     1.0000   1.0000   1.0000   1.0000   0.0000   0.0000   0.0000   0.0000
     0.0000   0.0000   0.0000   0.0000   0.0000   0.0000   0.0000   0.0000
     0.0000   0.0000   0.0000   0.0000   0.0000   0.0000   0.0000   0.0000
     0.0000   0.0000   0.0000   0.0000   0.0000   0.0000   0.0000   0.0000
     0.0000   0.0000   0.0000   0.0000

          k = 0.0000 0.2000 0.2909 ( 19672 PWs)   bands (ev):

   -48.2458 -48.2451 -48.2435 -48.2429 -22.6953 -22.6819 -22.6545 -22.6444
   -22.5464 -22.5445 -22.5436 -22.5425 -22.4799 -22.4779 -22.4773 -22.4761
   -21.4622 -21.4511 -21.4371 -21.4309  -6.2545  -6.2388  -5.8557  -5.6210
    -5.4881  -5.4353  -5.4088  -5.3800  -5.1405  -5.1240  -5.0150  -4.9972
    -3.6886  -3.5772  -3.5083  -3.5031  -3.4862  -3.4795  -3.4437  -3.3278
    -3.2879  -3.2441  -3.1798  -3.1159   5.9955   6.0026   6.0790   6.1492
     6.4131   6.4339   6.4918   6.7798   6.8551   6.9415   7.1363   7.1940
     7.3652   7.4426   7.7181   7.7854   7.8343   7.9532   8.2413   8.3234
     8.5529   8.5629   9.1494   9.3403   9.4760   9.6308   9.6631   9.7606
     9.7663   9.8277   9.8303   9.9069  10.2271  10.2638  10.6120  10.6432
    12.8795  12.9555  13.5542  13.5690  14.3868  14.3896  15.1114  15.1488
    15.5141  15.5387  15.6266  15.7320  16.8414  16.8437  17.0914  17.3040
    17.6293  17.7443  17.8788  18.2471  18.3176  18.4033  18.4138  18.6778
    18.7806  19.1028  19.2170  19.3631  19.4531  19.4878  19.5156  19.7246
    19.8481  19.9940  20.0436  20.1332

     occupation numbers 
     1.0000   1.0000   1.0000   1.0000   1.0000   1.0000   1.0000   1.0000
     1.0000   1.0000   1.0000   1.0000   1.0000   1.0000   1.0000   1.0000
     1.0000   1.0000   1.0000   1.0000   1.0000   1.0000   1.0000   1.0000
     1.0000   1.0000   1.0000   1.0000   1.0000   1.0000   1.0000   1.0000
     1.0000   1.0000   1.0000   1.0000   1.0000   1.0000   1.0000   1.0000
     1.0000   1.0000   1.0000   1.0000   1.0000   1.0000   1.0000   1.0000
     1.0000   1.0000   1.0000   1.0000   1.0000   1.0000   1.0000   1.0000
     1.0000   1.0000   1.0000   1.0000   1.0000   1.0000   1.0000   1.0000
     1.0000   1.0000   1.0000   1.0000   1.0000   1.0000   1.0000   1.0000
     1.0000   1.0000   1.0000   1.0000   1.0000   1.0000   1.0000   1.0000
     1.0000   1.0000   1.0000   1.0000   0.1678   0.1597   0.0000   0.0000
     0.0000   0.0000   0.0000   0.0000   0.0000   0.0000   0.0000   0.0000
     0.0000   0.0000   0.0000   0.0000   0.0000   0.0000   0.0000   0.0000
     0.0000   0.0000   0.0000   0.0000   0.0000   0.0000   0.0000   0.0000
     0.0000   0.0000   0.0000   0.0000

          k = 0.0000 0.2000 0.4364 ( 19672 PWs)   bands (ev):

   -48.2458 -48.2451 -48.2435 -48.2429 -22.6953 -22.6819 -22.6545 -22.6444
   -22.5464 -22.5445 -22.5436 -22.5425 -22.4799 -22.4779 -22.4773 -22.4761
   -21.4622 -21.4511 -21.4371 -21.4309  -6.2545  -6.2388  -5.8557  -5.6210
    -5.4881  -5.4353  -5.4088  -5.3800  -5.1405  -5.1240  -5.0150  -4.9972
    -3.6886  -3.5772  -3.5083  -3.5031  -3.4862  -3.4795  -3.4437  -3.3278
    -3.2879  -3.2441  -3.1798  -3.1159   5.9955   6.0026   6.0790   6.1492
     6.4131   6.4339   6.4918   6.7798   6.8551   6.9415   7.1363   7.1940
     7.3652   7.4426   7.7181   7.7854   7.8343   7.9532   8.2413   8.3234
     8.5529   8.5629   9.1494   9.3403   9.4760   9.6308   9.6631   9.7606
     9.7663   9.8277   9.8303   9.9069  10.2271  10.2638  10.6120  10.6432
    12.8795  12.9555  13.5542  13.5690  14.3868  14.3896  15.1114  15.1488
    15.5141  15.5387  15.6266  15.7320  16.8414  16.8437  17.0914  17.3040
    17.6293  17.7443  17.8788  18.2471  18.3176  18.4033  18.4138  18.6778
    18.7806  19.1028  19.2170  19.3631  19.4531  19.4878  19.5156  19.7246
    19.8481  19.9940  20.0436  20.1332

     occupation numbers 
     1.0000   1.0000   1.0000   1.0000   1.0000   1.0000   1.0000   1.0000
     1.0000   1.0000   1.0000   1.0000   1.0000   1.0000   1.0000   1.0000
     1.0000   1.0000   1.0000   1.0000   1.0000   1.0000   1.0000   1.0000
     1.0000   1.0000   1.0000   1.0000   1.0000   1.0000   1.0000   1.0000
     1.0000   1.0000   1.0000   1.0000   1.0000   1.0000   1.0000   1.0000
     1.0000   1.0000   1.0000   1.0000   1.0000   1.0000   1.0000   1.0000
     1.0000   1.0000   1.0000   1.0000   1.0000   1.0000   1.0000   1.0000
     1.0000   1.0000   1.0000   1.0000   1.0000   1.0000   1.0000   1.0000
     1.0000   1.0000   1.0000   1.0000   1.0000   1.0000   1.0000   1.0000
     1.0000   1.0000   1.0000   1.0000   1.0000   1.0000   1.0000   1.0000
     1.0000   1.0000   1.0000   1.0000   0.1678   0.1597   0.0000   0.0000
     0.0000   0.0000   0.0000   0.0000   0.0000   0.0000   0.0000   0.0000
     0.0000   0.0000   0.0000   0.0000   0.0000   0.0000   0.0000   0.0000
     0.0000   0.0000   0.0000   0.0000   0.0000   0.0000   0.0000   0.0000
     0.0000   0.0000   0.0000   0.0000

          k = 0.0000 0.2000 0.5818 ( 19679 PWs)   bands (ev):

   -48.2463 -48.2445 -48.2441 -48.2423 -22.7278 -22.7119 -22.6208 -22.6138
   -22.5486 -22.5461 -22.5413 -22.5409 -22.4821 -22.4793 -22.4752 -22.4747
   -21.4715 -21.4423 -21.4421 -21.4260  -6.3462  -6.3238  -6.1333  -5.6628
    -5.4563  -5.3869  -5.2374  -5.2062  -5.1573  -5.0931  -4.9357  -4.8481
    -3.7168  -3.6795  -3.5129  -3.4994  -3.4980  -3.4932  -3.4526  -3.4062
    -3.3713  -3.1461  -3.0917  -3.0243   5.5820   5.6387   5.9900   6.0087
     6.1268   6.2597   6.3560   6.5466   6.6417   6.9291   7.1938   7.5069
     7.5584   7.6043   7.8724   8.0724   8.0849   8.1853   8.2238   8.8393
     8.9290   8.9852   9.0402   9.2646   9.2999   9.3181   9.5464   9.6587
     9.6991   9.7773   9.9481   9.9867  10.5259  10.5261  10.5930  10.6821
    12.7737  12.8895  12.9044  13.0171  14.8412  14.8984  15.0701  15.0729
    15.5392  15.8015  15.9354  15.9643  16.6057  16.8155  16.8422  16.8645
    17.0806  17.4852  18.1077  18.2299  18.2937  18.3014  18.3073  18.3658
    18.8420  18.9863  19.0293  19.1404  19.6260  19.7768  19.8271  19.9176
    19.9380  20.1585  20.1608  20.3175

     occupation numbers 
     1.0000   1.0000   1.0000   1.0000   1.0000   1.0000   1.0000   1.0000
     1.0000   1.0000   1.0000   1.0000   1.0000   1.0000   1.0000   1.0000
     1.0000   1.0000   1.0000   1.0000   1.0000   1.0000   1.0000   1.0000
     1.0000   1.0000   1.0000   1.0000   1.0000   1.0000   1.0000   1.0000
     1.0000   1.0000   1.0000   1.0000   1.0000   1.0000   1.0000   1.0000
     1.0000   1.0000   1.0000   1.0000   1.0000   1.0000   1.0000   1.0000
     1.0000   1.0000   1.0000   1.0000   1.0000   1.0000   1.0000   1.0000
     1.0000   1.0000   1.0000   1.0000   1.0000   1.0000   1.0000   1.0000
     1.0000   1.0000   1.0000   1.0000   1.0000   1.0000   1.0000   1.0000
     1.0000   1.0000   1.0000   1.0000   1.0000   1.0000   1.0000   1.0000
     1.0000   1.0000   1.0000   1.0000   0.0000   0.0000   0.0000   0.0000
     0.0000   0.0000   0.0000   0.0000   0.0000   0.0000   0.0000   0.0000
     0.0000   0.0000   0.0000   0.0000   0.0000   0.0000   0.0000   0.0000
     0.0000   0.0000   0.0000   0.0000   0.0000   0.0000   0.0000   0.0000
     0.0000   0.0000   0.0000   0.0000

          k = 0.0000 0.4000 0.0000 ( 19670 PWs)   bands (ev):

   -48.2458 -48.2450 -48.2436 -48.2428 -22.7333 -22.7269 -22.6060 -22.6038
   -22.5335 -22.5262 -22.5206 -22.5199 -22.5083 -22.5006 -22.4953 -22.4947
   -21.4595 -21.4478 -21.4365 -21.4308  -6.4329  -6.3747  -5.9987  -5.4924
    -5.4802  -5.3999  -5.3260  -5.3020  -5.2053  -5.0834  -5.0808  -4.9763
    -3.6906  -3.5940  -3.4538  -3.4238  -3.3927  -3.3782  -3.3653  -3.2779
    -3.2723  -3.2402  -3.1446  -3.1423   5.3141   5.3232   6.3047   6.4940
     6.6187   6.6919   6.7230   6.7268   6.9799   7.0104   7.0324   7.3310
     7.4553   7.5126   7.5609   7.6420   8.0275   8.0921   8.2082   8.2417
     8.4555   8.7521   8.7875   9.0741   9.0911   9.2789   9.5183   9.6537
     9.6924   9.8015   9.8945   9.9432  10.0855  10.2287  10.2532  10.4180
    13.2446  13.4649  13.7992  14.0734  14.0835  14.2586  14.7516  15.0812
    15.4647  15.4922  15.7550  15.8137  17.2047  17.3026  17.5446  17.6458
    18.1170  18.1546  18.2464  18.2970  18.6730  18.7008  18.7505  18.7853
    18.7996  18.9178  19.0430  19.2697  19.5835  19.5993  19.6767  19.8397
    19.8947  19.9678  19.9778  20.0006

     occupation numbers 
     1.0000   1.0000   1.0000   1.0000   1.0000   1.0000   1.0000   1.0000
     1.0000   1.0000   1.0000   1.0000   1.0000   1.0000   1.0000   1.0000
     1.0000   1.0000   1.0000   1.0000   1.0000   1.0000   1.0000   1.0000
     1.0000   1.0000   1.0000   1.0000   1.0000   1.0000   1.0000   1.0000
     1.0000   1.0000   1.0000   1.0000   1.0000   1.0000   1.0000   1.0000
     1.0000   1.0000   1.0000   1.0000   1.0000   1.0000   1.0000   1.0000
     1.0000   1.0000   1.0000   1.0000   1.0000   1.0000   1.0000   1.0000
     1.0000   1.0000   1.0000   1.0000   1.0000   1.0000   1.0000   1.0000
     1.0000   1.0000   1.0000   1.0000   1.0000   1.0000   1.0000   1.0000
     1.0000   1.0000   1.0000   1.0000   1.0000   1.0000   1.0000   1.0000
     1.0000   1.0000   1.0000   1.0518   1.0588   0.7830   0.0000   0.0000
     0.0000   0.0000   0.0000   0.0000   0.0000   0.0000   0.0000   0.0000
     0.0000   0.0000   0.0000   0.0000   0.0000   0.0000   0.0000   0.0000
     0.0000   0.0000   0.0000   0.0000   0.0000   0.0000   0.0000   0.0000
     0.0000   0.0000   0.0000   0.0000

          k = 0.0000 0.4000 0.1455 ( 19683 PWs)   bands (ev):

   -48.2456 -48.2448 -48.2438 -48.2430 -22.7214 -22.7153 -22.6185 -22.6158
   -22.5323 -22.5256 -22.5218 -22.5205 -22.5070 -22.5001 -22.4965 -22.4953
   -21.4572 -21.4461 -21.4386 -21.4324  -6.3479  -6.2796  -5.9873  -5.5316
    -5.4969  -5.3832  -5.2993  -5.2963  -5.2261  -5.1847  -5.1537  -5.0195
    -3.6377  -3.5723  -3.4881  -3.4792  -3.4760  -3.4098  -3.3383  -3.2764
    -3.2547  -3.2220  -3.1202  -3.1189   5.6202   5.6287   6.3521   6.5784
     6.6056   6.6934   6.7086   6.8186   7.0295   7.0549   7.0895   7.2509
     7.4206   7.5504   7.5543   7.6504   7.7220   7.8967   7.9960   8.0791
     8.3800   8.4332   8.7840   8.9616   9.3877   9.3954   9.5584   9.6582
     9.6768   9.7175   9.9380   9.9406  10.0640  10.1824  10.2543  10.4107
    13.4188  13.5925  13.8305  14.0568  14.1906  14.3451  14.7846  15.0505
    15.2242  15.2296  15.5495  15.5781  17.4034  17.6652  17.7207  18.1133
    18.1166  18.2578  18.2652  18.2964  18.6031  18.6303  18.7759  18.8061
    18.8080  18.8145  18.8196  19.0684  19.7041  19.7223  19.7663  19.7807
    19.8627  19.8869  19.9909  20.0300

     occupation numbers 
     1.0000   1.0000   1.0000   1.0000   1.0000   1.0000   1.0000   1.0000
     1.0000   1.0000   1.0000   1.0000   1.0000   1.0000   1.0000   1.0000
     1.0000   1.0000   1.0000   1.0000   1.0000   1.0000   1.0000   1.0000
     1.0000   1.0000   1.0000   1.0000   1.0000   1.0000   1.0000   1.0000
     1.0000   1.0000   1.0000   1.0000   1.0000   1.0000   1.0000   1.0000
     1.0000   1.0000   1.0000   1.0000   1.0000   1.0000   1.0000   1.0000
     1.0000   1.0000   1.0000   1.0000   1.0000   1.0000   1.0000   1.0000
     1.0000   1.0000   1.0000   1.0000   1.0000   1.0000   1.0000   1.0000
     1.0000   1.0000   1.0000   1.0000   1.0000   1.0000   1.0000   1.0000
     1.0000   1.0000   1.0000   1.0000   1.0000   1.0000   1.0000   1.0000
     1.0000   1.0000   1.0000   1.0407   1.0336   0.3269   0.0000   0.0000
     0.0000   0.0000   0.0000   0.0000   0.0000   0.0000   0.0000   0.0000
     0.0000   0.0000   0.0000   0.0000   0.0000   0.0000   0.0000   0.0000
     0.0000   0.0000   0.0000   0.0000   0.0000   0.0000   0.0000   0.0000
     0.0000   0.0000   0.0000   0.0000

          k = 0.0000 0.4000 0.2909 ( 19689 PWs)   bands (ev):

   -48.2451 -48.2444 -48.2442 -48.2435 -22.6901 -22.6849 -22.6508 -22.6469
   -22.5290 -22.5250 -22.5240 -22.5221 -22.5037 -22.4997 -22.4986 -22.4968
   -21.4514 -21.4443 -21.4419 -21.4366  -6.1447  -6.0262  -5.9974  -5.7196
    -5.5114  -5.4028  -5.3378  -5.2815  -5.2781  -5.2481  -5.2244  -5.1193
    -3.5612  -3.5510  -3.5184  -3.5125  -3.4855  -3.4565  -3.4318  -3.3763
    -3.1591  -3.1482  -3.1108  -3.1101   6.3801   6.4002   6.4692   6.5558
     6.6973   6.7026   6.8337   7.0026   7.0320   7.0544   7.2145   7.3022
     7.3046   7.3702   7.4300   7.4435   7.4954   7.6893   7.6965   7.9170
     7.9388   7.9505   8.3974   8.4887   9.6857   9.7119   9.7131   9.7235
     9.7526   9.7960   9.9932   9.9956  10.0069  10.0202  10.2803  10.3584
    13.8599  13.9743  13.9843  13.9974  14.5439  14.6207  14.6221  14.6273
    14.8696  14.9662  15.0661  15.0789  17.8143  17.9842  18.1812  18.2685
    18.2947  18.3297  18.4211  18.5004  18.5150  18.5324  18.6006  18.7693
    18.7760  18.8295  18.8440  19.2313  19.6738  19.6910  19.7447  19.7912
    19.8589  19.8953  19.9879  20.0015

     occupation numbers 
     1.0000   1.0000   1.0000   1.0000   1.0000   1.0000   1.0000   1.0000
     1.0000   1.0000   1.0000   1.0000   1.0000   1.0000   1.0000   1.0000
     1.0000   1.0000   1.0000   1.0000   1.0000   1.0000   1.0000   1.0000
     1.0000   1.0000   1.0000   1.0000   1.0000   1.0000   1.0000   1.0000
     1.0000   1.0000   1.0000   1.0000   1.0000   1.0000   1.0000   1.0000
     1.0000   1.0000   1.0000   1.0000   1.0000   1.0000   1.0000   1.0000
     1.0000   1.0000   1.0000   1.0000   1.0000   1.0000   1.0000   1.0000
     1.0000   1.0000   1.0000   1.0000   1.0000   1.0000   1.0000   1.0000
     1.0000   1.0000   1.0000   1.0000   1.0000   1.0000   1.0000   1.0000
     1.0000   1.0000   1.0000   1.0000   1.0000   1.0000   1.0000   1.0000
     1.0002   1.0070   1.0091   1.0126   0.0028   0.0002   0.0001   0.0001
     0.0000   0.0000   0.0000   0.0000   0.0000   0.0000   0.0000   0.0000
     0.0000   0.0000   0.0000   0.0000   0.0000   0.0000   0.0000   0.0000
     0.0000   0.0000   0.0000   0.0000   0.0000   0.0000   0.0000   0.0000
     0.0000   0.0000   0.0000   0.0000

          k = 0.0000 0.4000 0.4364 ( 19689 PWs)   bands (ev):

   -48.2451 -48.2444 -48.2442 -48.2435 -22.6901 -22.6849 -22.6508 -22.6469
   -22.5290 -22.5250 -22.5240 -22.5221 -22.5037 -22.4997 -22.4986 -22.4968
   -21.4514 -21.4443 -21.4419 -21.4366  -6.1447  -6.0262  -5.9974  -5.7196
    -5.5114  -5.4028  -5.3378  -5.2815  -5.2781  -5.2481  -5.2244  -5.1193
    -3.5612  -3.5510  -3.5184  -3.5125  -3.4855  -3.4565  -3.4318  -3.3763
    -3.1591  -3.1482  -3.1108  -3.1101   6.3801   6.4002   6.4692   6.5558
     6.6973   6.7026   6.8337   7.0026   7.0320   7.0544   7.2145   7.3022
     7.3046   7.3702   7.4300   7.4435   7.4954   7.6893   7.6965   7.9170
     7.9388   7.9505   8.3974   8.4887   9.6857   9.7119   9.7131   9.7235
     9.7526   9.7960   9.9932   9.9956  10.0069  10.0202  10.2803  10.3584
    13.8599  13.9743  13.9843  13.9974  14.5439  14.6207  14.6221  14.6273
    14.8696  14.9662  15.0661  15.0789  17.8143  17.9842  18.1812  18.2685
    18.2947  18.3297  18.4211  18.5004  18.5150  18.5324  18.6006  18.7693
    18.7760  18.8295  18.8440  19.2313  19.6738  19.6910  19.7447  19.7912
    19.8589  19.8953  19.9879  20.0015

     occupation numbers 
     1.0000   1.0000   1.0000   1.0000   1.0000   1.0000   1.0000   1.0000
     1.0000   1.0000   1.0000   1.0000   1.0000   1.0000   1.0000   1.0000
     1.0000   1.0000   1.0000   1.0000   1.0000   1.0000   1.0000   1.0000
     1.0000   1.0000   1.0000   1.0000   1.0000   1.0000   1.0000   1.0000
     1.0000   1.0000   1.0000   1.0000   1.0000   1.0000   1.0000   1.0000
     1.0000   1.0000   1.0000   1.0000   1.0000   1.0000   1.0000   1.0000
     1.0000   1.0000   1.0000   1.0000   1.0000   1.0000   1.0000   1.0000
     1.0000   1.0000   1.0000   1.0000   1.0000   1.0000   1.0000   1.0000
     1.0000   1.0000   1.0000   1.0000   1.0000   1.0000   1.0000   1.0000
     1.0000   1.0000   1.0000   1.0000   1.0000   1.0000   1.0000   1.0000
     1.0002   1.0070   1.0091   1.0126   0.0028   0.0002   0.0001   0.0001
     0.0000   0.0000   0.0000   0.0000   0.0000   0.0000   0.0000   0.0000
     0.0000   0.0000   0.0000   0.0000   0.0000   0.0000   0.0000   0.0000
     0.0000   0.0000   0.0000   0.0000   0.0000   0.0000   0.0000   0.0000
     0.0000   0.0000   0.0000   0.0000

          k = 0.0000 0.4000 0.5818 ( 19683 PWs)   bands (ev):

   -48.2456 -48.2448 -48.2438 -48.2430 -22.7214 -22.7153 -22.6185 -22.6158
   -22.5323 -22.5256 -22.5218 -22.5205 -22.5070 -22.5001 -22.4965 -22.4953
   -21.4572 -21.4461 -21.4386 -21.4324  -6.3479  -6.2796  -5.9873  -5.5316
    -5.4969  -5.3832  -5.2993  -5.2963  -5.2261  -5.1847  -5.1537  -5.0195
    -3.6377  -3.5723  -3.4881  -3.4792  -3.4760  -3.4098  -3.3383  -3.2764
    -3.2547  -3.2220  -3.1202  -3.1189   5.6202   5.6287   6.3521   6.5784
     6.6056   6.6934   6.7086   6.8186   7.0295   7.0549   7.0895   7.2509
     7.4206   7.5504   7.5543   7.6504   7.7220   7.8967   7.9960   8.0791
     8.3800   8.4332   8.7840   8.9616   9.3877   9.3954   9.5584   9.6582
     9.6768   9.7175   9.9380   9.9406  10.0640  10.1824  10.2543  10.4107
    13.4188  13.5925  13.8305  14.0568  14.1906  14.3451  14.7846  15.0505
    15.2242  15.2296  15.5495  15.5781  17.4034  17.6652  17.7207  18.1133
    18.1166  18.2578  18.2652  18.2964  18.6031  18.6303  18.7759  18.8061
    18.8080  18.8145  18.8196  19.0684  19.7041  19.7223  19.7663  19.7807
    19.8627  19.8869  19.9909  20.0300

     occupation numbers 
     1.0000   1.0000   1.0000   1.0000   1.0000   1.0000   1.0000   1.0000
     1.0000   1.0000   1.0000   1.0000   1.0000   1.0000   1.0000   1.0000
     1.0000   1.0000   1.0000   1.0000   1.0000   1.0000   1.0000   1.0000
     1.0000   1.0000   1.0000   1.0000   1.0000   1.0000   1.0000   1.0000
     1.0000   1.0000   1.0000   1.0000   1.0000   1.0000   1.0000   1.0000
     1.0000   1.0000   1.0000   1.0000   1.0000   1.0000   1.0000   1.0000
     1.0000   1.0000   1.0000   1.0000   1.0000   1.0000   1.0000   1.0000
     1.0000   1.0000   1.0000   1.0000   1.0000   1.0000   1.0000   1.0000
     1.0000   1.0000   1.0000   1.0000   1.0000   1.0000   1.0000   1.0000
     1.0000   1.0000   1.0000   1.0000   1.0000   1.0000   1.0000   1.0000
     1.0000   1.0000   1.0000   1.0407   1.0336   0.3269   0.0000   0.0000
     0.0000   0.0000   0.0000   0.0000   0.0000   0.0000   0.0000   0.0000
     0.0000   0.0000   0.0000   0.0000   0.0000   0.0000   0.0000   0.0000
     0.0000   0.0000   0.0000   0.0000   0.0000   0.0000   0.0000   0.0000
     0.0000   0.0000   0.0000   0.0000

          k = 0.0000 0.6000 0.0000 ( 19670 PWs)   bands (ev):

   -48.2458 -48.2450 -48.2436 -48.2428 -22.7333 -22.7269 -22.6060 -22.6038
   -22.5335 -22.5262 -22.5206 -22.5199 -22.5083 -22.5006 -22.4953 -22.4947
   -21.4595 -21.4478 -21.4365 -21.4308  -6.4329  -6.3747  -5.9987  -5.4924
    -5.4802  -5.3999  -5.3260  -5.3020  -5.2053  -5.0834  -5.0808  -4.9763
    -3.6906  -3.5940  -3.4538  -3.4238  -3.3927  -3.3782  -3.3653  -3.2779
    -3.2723  -3.2402  -3.1446  -3.1423   5.3141   5.3232   6.3047   6.4940
     6.6187   6.6919   6.7230   6.7268   6.9799   7.0104   7.0324   7.3310
     7.4553   7.5126   7.5609   7.6420   8.0275   8.0921   8.2082   8.2417
     8.4555   8.7521   8.7875   9.0741   9.0911   9.2789   9.5183   9.6537
     9.6924   9.8015   9.8945   9.9432  10.0855  10.2287  10.2532  10.4180
    13.2446  13.4649  13.7992  14.0734  14.0835  14.2586  14.7516  15.0812
    15.4647  15.4922  15.7550  15.8137  17.2047  17.3026  17.5446  17.6458
    18.1170  18.1546  18.2464  18.2970  18.6730  18.7008  18.7505  18.7853
    18.7996  18.9178  19.0430  19.2697  19.5835  19.5993  19.6767  19.8397
    19.8947  19.9678  19.9778  20.0006

     occupation numbers 
     1.0000   1.0000   1.0000   1.0000   1.0000   1.0000   1.0000   1.0000
     1.0000   1.0000   1.0000   1.0000   1.0000   1.0000   1.0000   1.0000
     1.0000   1.0000   1.0000   1.0000   1.0000   1.0000   1.0000   1.0000
     1.0000   1.0000   1.0000   1.0000   1.0000   1.0000   1.0000   1.0000
     1.0000   1.0000   1.0000   1.0000   1.0000   1.0000   1.0000   1.0000
     1.0000   1.0000   1.0000   1.0000   1.0000   1.0000   1.0000   1.0000
     1.0000   1.0000   1.0000   1.0000   1.0000   1.0000   1.0000   1.0000
     1.0000   1.0000   1.0000   1.0000   1.0000   1.0000   1.0000   1.0000
     1.0000   1.0000   1.0000   1.0000   1.0000   1.0000   1.0000   1.0000
     1.0000   1.0000   1.0000   1.0000   1.0000   1.0000   1.0000   1.0000
     1.0000   1.0000   1.0000   1.0518   1.0588   0.7830   0.0000   0.0000
     0.0000   0.0000   0.0000   0.0000   0.0000   0.0000   0.0000   0.0000
     0.0000   0.0000   0.0000   0.0000   0.0000   0.0000   0.0000   0.0000
     0.0000   0.0000   0.0000   0.0000   0.0000   0.0000   0.0000   0.0000
     0.0000   0.0000   0.0000   0.0000

          k = 0.0000 0.6000 0.1455 ( 19683 PWs)   bands (ev):

   -48.2456 -48.2448 -48.2438 -48.2430 -22.7214 -22.7153 -22.6185 -22.6158
   -22.5323 -22.5256 -22.5218 -22.5205 -22.5070 -22.5001 -22.4965 -22.4953
   -21.4572 -21.4461 -21.4386 -21.4324  -6.3479  -6.2796  -5.9873  -5.5316
    -5.4969  -5.3832  -5.2993  -5.2963  -5.2261  -5.1847  -5.1537  -5.0195
    -3.6377  -3.5723  -3.4881  -3.4792  -3.4760  -3.4098  -3.3383  -3.2764
    -3.2547  -3.2220  -3.1202  -3.1189   5.6202   5.6287   6.3521   6.5784
     6.6056   6.6934   6.7086   6.8186   7.0295   7.0549   7.0895   7.2509
     7.4206   7.5504   7.5543   7.6504   7.7220   7.8967   7.9960   8.0791
     8.3800   8.4332   8.7840   8.9616   9.3877   9.3954   9.5584   9.6582
     9.6768   9.7175   9.9380   9.9406  10.0640  10.1824  10.2543  10.4107
    13.4188  13.5925  13.8305  14.0568  14.1906  14.3451  14.7846  15.0505
    15.2242  15.2296  15.5495  15.5781  17.4034  17.6652  17.7207  18.1133
    18.1166  18.2578  18.2652  18.2964  18.6031  18.6303  18.7759  18.8061
    18.8080  18.8145  18.8196  19.0684  19.7041  19.7223  19.7663  19.7807
    19.8627  19.8869  19.9909  20.0300

     occupation numbers 
     1.0000   1.0000   1.0000   1.0000   1.0000   1.0000   1.0000   1.0000
     1.0000   1.0000   1.0000   1.0000   1.0000   1.0000   1.0000   1.0000
     1.0000   1.0000   1.0000   1.0000   1.0000   1.0000   1.0000   1.0000
     1.0000   1.0000   1.0000   1.0000   1.0000   1.0000   1.0000   1.0000
     1.0000   1.0000   1.0000   1.0000   1.0000   1.0000   1.0000   1.0000
     1.0000   1.0000   1.0000   1.0000   1.0000   1.0000   1.0000   1.0000
     1.0000   1.0000   1.0000   1.0000   1.0000   1.0000   1.0000   1.0000
     1.0000   1.0000   1.0000   1.0000   1.0000   1.0000   1.0000   1.0000
     1.0000   1.0000   1.0000   1.0000   1.0000   1.0000   1.0000   1.0000
     1.0000   1.0000   1.0000   1.0000   1.0000   1.0000   1.0000   1.0000
     1.0000   1.0000   1.0000   1.0407   1.0336   0.3269   0.0000   0.0000
     0.0000   0.0000   0.0000   0.0000   0.0000   0.0000   0.0000   0.0000
[...]
     1.0000   1.0000   1.0000   1.0000   1.0000   1.0000   1.0000   1.0000
     1.0000   1.0000   1.0000   1.0000   1.0000   1.0000   1.0000   1.0000
     1.0000   1.0000   1.0000   1.0000   1.0000   1.0000   1.0000   1.0000
     1.0000   1.0000   1.0000   1.0000   1.0000   1.0000   1.0000   1.0000
     1.0000   1.0000   1.0000   1.0000   1.0000   1.0000   1.0000   1.0000
     1.0000   1.0000   1.0000   1.0000   1.0000   1.0000   1.0000   1.0000
     1.0000   1.0000   1.0000   1.0000   1.0000   1.0000   1.0000   1.0000
     1.0000   1.0000   1.0000   1.0000   1.0000   1.0000   1.0000   1.0000
     1.0000   1.0000   1.0000   1.0000   1.0000   1.0000   1.0000   1.0000
     1.0000   1.0697   0.8194   0.7779   0.0605   0.0130   0.0000   0.0000
     0.0000   0.0000   0.0000   0.0000   0.0000   0.0000   0.0000   0.0000
     0.0000   0.0000   0.0000   0.0000   0.0000   0.0000   0.0000   0.0000
     0.0000   0.0000   0.0000   0.0000   0.0000   0.0000   0.0000   0.0000
     0.0000   0.0000   0.0000   0.0000

          k = 0.8000 0.6000 0.4364 ( 19706 PWs)   bands (ev):

   -48.2450 -48.2443 -48.2443 -48.2436 -22.6889 -22.6847 -22.6500 -22.6469
   -22.5528 -22.5481 -22.5325 -22.5278 -22.4969 -22.4950 -22.4762 -22.4743
   -21.4487 -21.4432 -21.4411 -21.4371  -6.2372  -6.1447  -6.0374  -5.8395
    -5.5285  -5.4206  -5.3844  -5.2780  -5.2135  -5.1981  -5.0747  -5.0550
    -3.5948  -3.5741  -3.5093  -3.4990  -3.3632  -3.3502  -3.3460  -3.2801
    -3.1622  -3.1497  -3.1279  -3.1257   6.0318   6.0647   6.3368   6.3738
     6.5073   6.5912   6.6743   6.7503   6.9663   7.0858   7.1664   7.3205
     7.3419   7.4103   7.5091   7.5157   7.6095   7.7517   7.8809   8.0332
     8.0795   8.3309   8.9115   8.9770   9.4365   9.5369   9.5756   9.6144
     9.6185   9.7307   9.7489   9.8957   9.9265  10.0372  10.1937  10.3624
    13.6393  14.1000  14.2513  14.2596  14.4366  14.4956  14.7549  14.9060
    14.9955  15.0064  15.0757  15.3660  17.4678  17.6479  17.9766  18.1883
    18.4501  18.4982  18.5588  18.6236  18.6818  18.6882  18.7862  18.8570
    18.8947  19.0810  19.0909  19.2417  19.4679  19.5377  19.6161  19.7212
    19.7373  19.9827  20.0130  20.1609

     occupation numbers 
     1.0000   1.0000   1.0000   1.0000   1.0000   1.0000   1.0000   1.0000
     1.0000   1.0000   1.0000   1.0000   1.0000   1.0000   1.0000   1.0000
     1.0000   1.0000   1.0000   1.0000   1.0000   1.0000   1.0000   1.0000
     1.0000   1.0000   1.0000   1.0000   1.0000   1.0000   1.0000   1.0000
     1.0000   1.0000   1.0000   1.0000   1.0000   1.0000   1.0000   1.0000
     1.0000   1.0000   1.0000   1.0000   1.0000   1.0000   1.0000   1.0000
     1.0000   1.0000   1.0000   1.0000   1.0000   1.0000   1.0000   1.0000
     1.0000   1.0000   1.0000   1.0000   1.0000   1.0000   1.0000   1.0000
     1.0000   1.0000   1.0000   1.0000   1.0000   1.0000   1.0000   1.0000
     1.0000   1.0000   1.0000   1.0000   1.0000   1.0000   1.0000   1.0000
     1.0000   1.0697   0.8194   0.7779   0.0605   0.0130   0.0000   0.0000
     0.0000   0.0000   0.0000   0.0000   0.0000   0.0000   0.0000   0.0000
     0.0000   0.0000   0.0000   0.0000   0.0000   0.0000   0.0000   0.0000
     0.0000   0.0000   0.0000   0.0000   0.0000   0.0000   0.0000   0.0000
     0.0000   0.0000   0.0000   0.0000

          k = 0.8000 0.6000 0.5818 ( 19701 PWs)   bands (ev):

   -48.2455 -48.2448 -48.2438 -48.2431 -22.7199 -22.7150 -22.6181 -22.6159
   -22.5566 -22.5443 -22.5364 -22.5241 -22.4985 -22.4934 -22.4777 -22.4728
   -21.4532 -21.4444 -21.4389 -21.4338  -6.4433  -6.3869  -5.9586  -5.5967
    -5.5870  -5.4719  -5.2751  -5.2047  -5.1816  -5.1480  -5.0660  -5.0319
    -3.5868  -3.5021  -3.5017  -3.4987  -3.3970  -3.3720  -3.2987  -3.2737
    -3.2241  -3.1619  -3.1156  -3.0931   5.5973   5.6212   6.0728   6.0753
     6.2015   6.2352   6.7289   6.8365   6.9653   7.0021   7.3275   7.3370
     7.5433   7.6401   7.6657   7.7823   7.9542   8.0258   8.0278   8.1701
     8.2996   8.9331   8.9599   9.1674   9.2539   9.3548   9.5077   9.5124
     9.5311   9.6158   9.7700   9.8151   9.9231   9.9399  10.2877  10.5744
    12.9595  13.6019  14.1896  14.1991  14.3314  14.8123  14.9343  15.1284
    15.1300  15.3411  15.4141  15.7848  17.0682  17.5846  17.7181  17.7911
    17.8144  18.3006  18.3813  18.4463  18.6073  18.8331  19.0235  19.0367
    19.0599  19.0817  19.3066  19.3338  19.3739  19.4705  19.6223  19.6534
    19.8021  19.8467  19.9773  20.1601

     occupation numbers 
     1.0000   1.0000   1.0000   1.0000   1.0000   1.0000   1.0000   1.0000
     1.0000   1.0000   1.0000   1.0000   1.0000   1.0000   1.0000   1.0000
     1.0000   1.0000   1.0000   1.0000   1.0000   1.0000   1.0000   1.0000
     1.0000   1.0000   1.0000   1.0000   1.0000   1.0000   1.0000   1.0000
     1.0000   1.0000   1.0000   1.0000   1.0000   1.0000   1.0000   1.0000
     1.0000   1.0000   1.0000   1.0000   1.0000   1.0000   1.0000   1.0000
     1.0000   1.0000   1.0000   1.0000   1.0000   1.0000   1.0000   1.0000
     1.0000   1.0000   1.0000   1.0000   1.0000   1.0000   1.0000   1.0000
     1.0000   1.0000   1.0000   1.0000   1.0000   1.0000   1.0000   1.0000
     1.0000   1.0000   1.0000   1.0000   1.0000   1.0000   1.0000   1.0000
     1.0000   1.0000   1.0356   1.0142   0.3925   0.0000   0.0000   0.0000
     0.0000   0.0000   0.0000   0.0000   0.0000   0.0000   0.0000   0.0000
     0.0000   0.0000   0.0000   0.0000   0.0000   0.0000   0.0000   0.0000
     0.0000   0.0000   0.0000   0.0000   0.0000   0.0000   0.0000   0.0000
     0.0000   0.0000   0.0000   0.0000

          k = 0.8000 0.8000 0.0000 ( 19699 PWs)   bands (ev):

   -48.2463 -48.2445 -48.2441 -48.2423 -22.7375 -22.7239 -22.6072 -22.6025
   -22.5611 -22.5496 -22.5250 -22.5188 -22.5078 -22.4964 -22.4706 -22.4651
   -21.4684 -21.4435 -21.4389 -21.4268  -6.4666  -6.3308  -6.2486  -5.6531
    -5.3819  -5.3321  -5.3315  -5.0995  -5.0790  -5.0484  -5.0453  -4.9436
    -3.6737  -3.5477  -3.5220  -3.5093  -3.4693  -3.4639  -3.4059  -3.3666
    -3.3250  -3.1673  -3.0552  -3.0228   5.2897   5.3280   5.8102   5.8893
     6.2202   6.3687   6.6043   6.7199   6.7695   6.9916   7.0740   7.5296
     7.5761   7.6423   7.8921   7.9536   8.0629   8.1718   8.3453   8.8177
     8.8571   8.9895   9.0228   9.1089   9.1321   9.3414   9.3802   9.4199
     9.6564   9.7724  10.1326  10.1415  10.3438  10.3820  10.3890  10.7650
    12.3048  13.3205  13.3261  13.4831  14.1950  15.0025  15.3327  15.3689
    15.4147  15.6710  15.8727  16.2210  16.3728  16.7335  16.9279  17.0078
    17.5098  17.7636  17.8257  18.0240  18.4545  18.6680  18.7019  18.7027
    18.9199  18.9912  19.2719  19.3411  19.4015  19.5873  19.8309  19.9603
    19.9635  20.0196  20.3053  20.4264

     occupation numbers 
     1.0000   1.0000   1.0000   1.0000   1.0000   1.0000   1.0000   1.0000
     1.0000   1.0000   1.0000   1.0000   1.0000   1.0000   1.0000   1.0000
     1.0000   1.0000   1.0000   1.0000   1.0000   1.0000   1.0000   1.0000
     1.0000   1.0000   1.0000   1.0000   1.0000   1.0000   1.0000   1.0000
     1.0000   1.0000   1.0000   1.0000   1.0000   1.0000   1.0000   1.0000
     1.0000   1.0000   1.0000   1.0000   1.0000   1.0000   1.0000   1.0000
     1.0000   1.0000   1.0000   1.0000   1.0000   1.0000   1.0000   1.0000
     1.0000   1.0000   1.0000   1.0000   1.0000   1.0000   1.0000   1.0000
     1.0000   1.0000   1.0000   1.0000   1.0000   1.0000   1.0000   1.0000
     1.0000   1.0000   1.0000   1.0000   1.0000   1.0000   1.0000   1.0000
     1.0000   1.0000   1.0000   1.0000   1.0239   0.0000   0.0000   0.0000
     0.0000   0.0000   0.0000   0.0000   0.0000   0.0000   0.0000   0.0000
     0.0000   0.0000   0.0000   0.0000   0.0000   0.0000   0.0000   0.0000
     0.0000   0.0000   0.0000   0.0000   0.0000   0.0000   0.0000   0.0000
     0.0000   0.0000   0.0000   0.0000

          k = 0.8000 0.8000 0.1455 ( 19703 PWs)   bands (ev):

   -48.2461 -48.2443 -48.2443 -48.2425 -22.7254 -22.7125 -22.6201 -22.6143
   -22.5600 -22.5507 -22.5244 -22.5194 -22.5067 -22.4974 -22.4701 -22.4656
   -21.4655 -21.4419 -21.4416 -21.4284  -6.3943  -6.2333  -6.2270  -5.6507
    -5.3470  -5.3445  -5.3444  -5.2905  -5.1512  -5.0822  -5.0017  -4.9540
    -3.7084  -3.5165  -3.5087  -3.4749  -3.4695  -3.4508  -3.4217  -3.3790
    -3.3016  -3.1598  -3.1025  -3.0510   5.5578   5.6333   5.8107   5.9300
     6.2874   6.4161   6.7104   6.7514   6.7699   7.0339   7.0406   7.4835
     7.5570   7.6421   7.6618   7.7318   8.0577   8.1216   8.1263   8.6068
     8.8646   8.8698   8.8908   9.2105   9.3446   9.3526   9.4043   9.5715
     9.6715   9.8063   9.8688  10.0045  10.2679  10.3593  10.3930  10.6865
    12.6631  13.3470  13.4482  13.4635  14.3170  15.0645  15.0695  15.1553
    15.3995  15.6424  15.6563  16.0295  16.5818  16.9021  16.9958  17.1073
    17.7818  17.9392  18.2074  18.2190  18.5006  18.5038  18.6742  18.7165
    18.8015  18.9833  19.1908  19.3081  19.3396  19.4676  19.8262  19.9212
    20.0403  20.1185  20.1909  20.2355

     occupation numbers 
     1.0000   1.0000   1.0000   1.0000   1.0000   1.0000   1.0000   1.0000
     1.0000   1.0000   1.0000   1.0000   1.0000   1.0000   1.0000   1.0000
     1.0000   1.0000   1.0000   1.0000   1.0000   1.0000   1.0000   1.0000
     1.0000   1.0000   1.0000   1.0000   1.0000   1.0000   1.0000   1.0000
     1.0000   1.0000   1.0000   1.0000   1.0000   1.0000   1.0000   1.0000
     1.0000   1.0000   1.0000   1.0000   1.0000   1.0000   1.0000   1.0000
     1.0000   1.0000   1.0000   1.0000   1.0000   1.0000   1.0000   1.0000
     1.0000   1.0000   1.0000   1.0000   1.0000   1.0000   1.0000   1.0000
     1.0000   1.0000   1.0000   1.0000   1.0000   1.0000   1.0000   1.0000
     1.0000   1.0000   1.0000   1.0000   1.0000   1.0000   1.0000   1.0000
     1.0000   1.0000   1.0000   1.0000   0.4672   0.0000   0.0000   0.0000
     0.0000   0.0000   0.0000   0.0000   0.0000   0.0000   0.0000   0.0000
     0.0000   0.0000   0.0000   0.0000   0.0000   0.0000   0.0000   0.0000
     0.0000   0.0000   0.0000   0.0000   0.0000   0.0000   0.0000   0.0000
     0.0000   0.0000   0.0000   0.0000

          k = 0.8000 0.8000 0.2909 ( 19694 PWs)   bands (ev):

   -48.2455 -48.2449 -48.2437 -48.2431 -22.6934 -22.6825 -22.6532 -22.6450
   -22.5571 -22.5536 -22.5228 -22.5209 -22.5037 -22.5002 -22.4687 -22.4670
   -21.4579 -21.4488 -21.4378 -21.4326  -6.2474  -6.1934  -5.9691  -5.6197
    -5.6069  -5.4308  -5.3613  -5.3355  -5.2390  -5.0967  -5.0381  -4.9879
    -3.6971  -3.6032  -3.5021  -3.4841  -3.4233  -3.4017  -3.3875  -3.2871
    -3.2288  -3.2262  -3.1906  -3.1275   5.7947   5.8104   6.4210   6.4524
     6.4657   6.5076   6.7619   6.8173   6.9665   7.0101   7.1198   7.2381
     7.2614   7.2912   7.4699   7.7434   7.8097   7.9272   7.9959   8.0291
     8.2986   8.5819   8.9989   9.2043   9.4622   9.5316   9.7104   9.7222
     9.8076   9.8271   9.8557   9.8696  10.0475  10.2332  10.4139  10.5004
    13.3038  13.4117  13.5497  13.8776  14.3757  14.5367  14.6692  15.1720
    15.2775  15.4795  15.5587  15.6431  16.8287  16.9473  17.3771  17.5548
    18.0074  18.1258  18.1538  18.5579  18.6603  18.6713  18.7155  18.7700
    18.8212  18.9656  19.1844  19.3215  19.4055  19.5034  19.5702  19.6012
    19.6693  19.9413  20.1949  20.2243

     occupation numbers 
     1.0000   1.0000   1.0000   1.0000   1.0000   1.0000   1.0000   1.0000
     1.0000   1.0000   1.0000   1.0000   1.0000   1.0000   1.0000   1.0000
     1.0000   1.0000   1.0000   1.0000   1.0000   1.0000   1.0000   1.0000
     1.0000   1.0000   1.0000   1.0000   1.0000   1.0000   1.0000   1.0000
     1.0000   1.0000   1.0000   1.0000   1.0000   1.0000   1.0000   1.0000
     1.0000   1.0000   1.0000   1.0000   1.0000   1.0000   1.0000   1.0000
     1.0000   1.0000   1.0000   1.0000   1.0000   1.0000   1.0000   1.0000
     1.0000   1.0000   1.0000   1.0000   1.0000   1.0000   1.0000   1.0000
     1.0000   1.0000   1.0000   1.0000   1.0000   1.0000   1.0000   1.0000
     1.0000   1.0000   1.0000   1.0000   1.0000   1.0000   1.0000   1.0000
     1.0000   1.0000   1.0000   1.0003   0.2039   0.0036   0.0000   0.0000
     0.0000   0.0000   0.0000   0.0000   0.0000   0.0000   0.0000   0.0000
     0.0000   0.0000   0.0000   0.0000   0.0000   0.0000   0.0000   0.0000
     0.0000   0.0000   0.0000   0.0000   0.0000   0.0000   0.0000   0.0000
     0.0000   0.0000   0.0000   0.0000

          k = 0.8000 0.8000 0.4364 ( 19694 PWs)   bands (ev):

   -48.2455 -48.2449 -48.2437 -48.2431 -22.6934 -22.6825 -22.6532 -22.6450
   -22.5571 -22.5536 -22.5228 -22.5209 -22.5037 -22.5002 -22.4687 -22.4670
   -21.4579 -21.4488 -21.4378 -21.4326  -6.2474  -6.1934  -5.9691  -5.6197
    -5.6069  -5.4308  -5.3613  -5.3355  -5.2390  -5.0967  -5.0381  -4.9879
    -3.6971  -3.6032  -3.5021  -3.4841  -3.4233  -3.4017  -3.3875  -3.2871
    -3.2288  -3.2262  -3.1906  -3.1275   5.7947   5.8104   6.4210   6.4524
     6.4657   6.5076   6.7619   6.8173   6.9665   7.0101   7.1198   7.2381
     7.2614   7.2912   7.4699   7.7434   7.8097   7.9272   7.9959   8.0291
     8.2986   8.5819   8.9989   9.2043   9.4622   9.5316   9.7104   9.7222
     9.8076   9.8271   9.8557   9.8696  10.0475  10.2332  10.4139  10.5004
    13.3038  13.4117  13.5497  13.8776  14.3757  14.5367  14.6692  15.1720
    15.2775  15.4795  15.5587  15.6431  16.8287  16.9473  17.3771  17.5548
    18.0074  18.1258  18.1538  18.5579  18.6603  18.6713  18.7155  18.7700
    18.8212  18.9656  19.1844  19.3215  19.4055  19.5034  19.5702  19.6012
    19.6693  19.9413  20.1949  20.2243

     occupation numbers 
     1.0000   1.0000   1.0000   1.0000   1.0000   1.0000   1.0000   1.0000
     1.0000   1.0000   1.0000   1.0000   1.0000   1.0000   1.0000   1.0000
     1.0000   1.0000   1.0000   1.0000   1.0000   1.0000   1.0000   1.0000
     1.0000   1.0000   1.0000   1.0000   1.0000   1.0000   1.0000   1.0000
     1.0000   1.0000   1.0000   1.0000   1.0000   1.0000   1.0000   1.0000
     1.0000   1.0000   1.0000   1.0000   1.0000   1.0000   1.0000   1.0000
     1.0000   1.0000   1.0000   1.0000   1.0000   1.0000   1.0000   1.0000
     1.0000   1.0000   1.0000   1.0000   1.0000   1.0000   1.0000   1.0000
     1.0000   1.0000   1.0000   1.0000   1.0000   1.0000   1.0000   1.0000
     1.0000   1.0000   1.0000   1.0000   1.0000   1.0000   1.0000   1.0000
     1.0000   1.0000   1.0000   1.0003   0.2039   0.0036   0.0000   0.0000
     0.0000   0.0000   0.0000   0.0000   0.0000   0.0000   0.0000   0.0000
     0.0000   0.0000   0.0000   0.0000   0.0000   0.0000   0.0000   0.0000
     0.0000   0.0000   0.0000   0.0000   0.0000   0.0000   0.0000   0.0000
     0.0000   0.0000   0.0000   0.0000

          k = 0.8000 0.8000 0.5818 ( 19703 PWs)   bands (ev):

   -48.2461 -48.2443 -48.2443 -48.2425 -22.7254 -22.7125 -22.6201 -22.6143
   -22.5600 -22.5507 -22.5244 -22.5194 -22.5067 -22.4974 -22.4701 -22.4656
   -21.4655 -21.4419 -21.4416 -21.4284  -6.3943  -6.2333  -6.2270  -5.6507
    -5.3470  -5.3445  -5.3444  -5.2905  -5.1512  -5.0822  -5.0017  -4.9540
    -3.7084  -3.5165  -3.5087  -3.4749  -3.4695  -3.4508  -3.4217  -3.3790
    -3.3016  -3.1598  -3.1025  -3.0510   5.5578   5.6333   5.8107   5.9300
     6.2874   6.4161   6.7104   6.7514   6.7699   7.0339   7.0406   7.4835
     7.5570   7.6421   7.6618   7.7318   8.0577   8.1216   8.1263   8.6068
     8.8646   8.8698   8.8908   9.2105   9.3446   9.3526   9.4043   9.5715
     9.6715   9.8063   9.8688  10.0045  10.2679  10.3593  10.3930  10.6865
    12.6631  13.3470  13.4482  13.4635  14.3170  15.0645  15.0695  15.1553
    15.3995  15.6424  15.6563  16.0295  16.5818  16.9021  16.9958  17.1073
    17.7818  17.9392  18.2074  18.2190  18.5006  18.5038  18.6742  18.7165
    18.8015  18.9833  19.1908  19.3081  19.3396  19.4676  19.8262  19.9212
    20.0403  20.1185  20.1909  20.2355

     occupation numbers 
     1.0000   1.0000   1.0000   1.0000   1.0000   1.0000   1.0000   1.0000
     1.0000   1.0000   1.0000   1.0000   1.0000   1.0000   1.0000   1.0000
     1.0000   1.0000   1.0000   1.0000   1.0000   1.0000   1.0000   1.0000
     1.0000   1.0000   1.0000   1.0000   1.0000   1.0000   1.0000   1.0000
     1.0000   1.0000   1.0000   1.0000   1.0000   1.0000   1.0000   1.0000
     1.0000   1.0000   1.0000   1.0000   1.0000   1.0000   1.0000   1.0000
     1.0000   1.0000   1.0000   1.0000   1.0000   1.0000   1.0000   1.0000
     1.0000   1.0000   1.0000   1.0000   1.0000   1.0000   1.0000   1.0000
     1.0000   1.0000   1.0000   1.0000   1.0000   1.0000   1.0000   1.0000
     1.0000   1.0000   1.0000   1.0000   1.0000   1.0000   1.0000   1.0000
     1.0000   1.0000   1.0000   1.0000   0.4672   0.0000   0.0000   0.0000
     0.0000   0.0000   0.0000   0.0000   0.0000   0.0000   0.0000   0.0000
     0.0000   0.0000   0.0000   0.0000   0.0000   0.0000   0.0000   0.0000
     0.0000   0.0000   0.0000   0.0000   0.0000   0.0000   0.0000   0.0000
     0.0000   0.0000   0.0000   0.0000

     the Fermi energy is    14.3298 ev
     (compare with:    14.3298 eV, computed in scf)
     The nscf band energy is:      -45.20512524 Ry
     Calculation interrupted for call of DMFT code

     Writing all to output data dir ./out/smo.save/ :
     XML data file, pseudopotentials, collected wavefunctions

     init_run     :      0.58s CPU      0.74s WALL (       1 calls)
     electrons    :    357.20s CPU    379.77s WALL (       1 calls)

     Called by init_run:
     wfcinit      :      0.00s CPU      0.00s WALL (       1 calls)
     wfcinit:atom :      0.17s CPU      0.17s WALL (     125 calls)
     wfcinit:wfcr :      9.76s CPU     10.00s WALL (     125 calls)
     potinit      :      0.13s CPU      0.14s WALL (       1 calls)
     hinit0       :      0.21s CPU      0.22s WALL (       1 calls)

     Called by electrons:
     c_bands      :    354.54s CPU    370.59s WALL (       1 calls)
     v_of_rho     :      0.01s CPU      0.01s WALL (       1 calls)
     v_h          :      0.01s CPU      0.01s WALL (       1 calls)
     v_xc         :      0.00s CPU      0.00s WALL (       1 calls)
     newd         :      0.11s CPU      0.24s WALL (       1 calls)
     PAW_pot      :      0.02s CPU      0.02s WALL (       1 calls)

     Called by c_bands:
     init_us_2    :      0.28s CPU      0.29s WALL (     125 calls)
     init_us_2:cp :      0.28s CPU      0.29s WALL (     125 calls)
     cegterg      :    342.20s CPU    357.67s WALL (     165 calls)

     Called by sum_band:

     Called by *egterg:
     cdiaghg      :    192.04s CPU    192.64s WALL (    2663 calls)
     cegterg:over :     34.19s CPU     37.83s WALL (    2538 calls)
     cegterg:upda :     20.24s CPU     20.29s WALL (    2538 calls)
     cegterg:last :      7.27s CPU      7.27s WALL (     290 calls)
     h_psi        :     78.48s CPU     81.76s WALL (    2828 calls)
     s_psi        :      8.23s CPU      8.36s WALL (    2828 calls)
     g_psi        :      0.33s CPU      0.34s WALL (    2538 calls)

     Called by h_psi:
     h_psi:calbec :     11.20s CPU     11.93s WALL (    2828 calls)
     vloc_psi     :     57.50s CPU     58.75s WALL (    2828 calls)
     add_vuspsi   :      9.01s CPU      9.03s WALL (    2828 calls)

     General routines
     calbec       :     11.18s CPU     11.91s WALL (    2828 calls)
     fft          :      0.16s CPU      0.16s WALL (       6 calls)
     ffts         :      0.09s CPU      0.09s WALL (       1 calls)
     fftw         :     52.47s CPU     53.53s WALL (  320154 calls)
     interpolate  :      0.09s CPU      0.10s WALL (       1 calls)
     davcio       :      0.04s CPU      0.47s WALL (     250 calls)

     Parallel routines

     PAW routines
     PAW_pot      :      0.02s CPU      0.02s WALL (       1 calls)

     PWSCF        :   5m58.23s CPU   6m20.97s WALL


   This run was terminated on:  18:23:44  18Dec2025            

=------------------------------------------------------------------------------=
   JOB DONE.
=------------------------------------------------------------------------------=
