
     Program PWSCF v.7.3 starts on 20Dec2025 at 10:57:58 

     This program is part of the open-source Quantum ESPRESSO suite
     for quantum simulation of materials; please cite
         "P. Giannozzi et al., J. Phys.:Condens. Matter 21 395502 (2009);
         "P. Giannozzi et al., J. Phys.:Condens. Matter 29 465901 (2017);
         "P. Giannozzi et al., J. Chem. Phys. 152 154105 (2020);
          URL http://www.quantum-espresso.org", 
     in publications or presentations arising from this work. More details at
     http://www.quantum-espresso.org/quote

     Parallel version (MPI), running on    64 processors

     MPI processes distributed on     1 nodes
     332498 MiB available memory on the printing compute node when the environment starts

     Reading input from smo.nscf.in

     Current dimensions of program PWSCF are:
     Max number of different atomic species (ntypx) = 10
     Max number of k-points (npk) =  40000
     Max angular momentum in pseudopotentials (lmaxx) =  4
     file Sr.pz-spn-kjpaw_psl.1.0.0.UPF: wavefunction(s)  4P renormalized
     file Mo.pz-spn-kjpaw_psl.1.0.0.UPF: wavefunction(s)  4S 4D renormalized
     file O.pz-n-kjpaw_psl.1.0.0.UPF: wavefunction(s)  2S 2P renormalized

     Atomic positions and unit cell read from directory:
     ./out/smo.save/

     Found identity + (  0.0000  0.0000 -0.5000) symmetry
     This is a supercell, fractional translations are disabled

     K-points division:     npool     =       2
     R & G space division:  proc/nbgrp/npool/nimage =      32
     Subspace diagonalization in iterative solution of the eigenvalue problem:
     a serial algorithm will be used


     Parallelization info
     --------------------
     sticks:   dense  smooth     PW     G-vecs:    dense   smooth      PW
     Min         111      55     17                 6883     2431     411
     Max         112      56     18                 6888     2436     416
     Sum        3569    1781    553               220317    77861   13213

     Using Slab Decomposition



     bravais-lattice index     =            0
     lattice parameter (alat)  =      10.5825  a.u.
     unit-cell volume          =    1629.5338 (a.u.)^3
     number of atoms/cell      =           20
     number of atomic types    =            3
     number of electrons       =       168.00
     number of Kohn-Sham states=          101
     kinetic-energy cutoff     =      50.0000  Ry
     charge density cutoff     =     400.0000  Ry
     Exchange-correlation= SLA  PZ   NOGX NOGC
                           (   1   1   0   0   0   0   0)

     celldm(1)=  10.582466  celldm(2)=   0.000000  celldm(3)=   0.000000
     celldm(4)=   0.000000  celldm(5)=   0.000000  celldm(6)=   0.000000

     crystal axes: (cart. coord. in units of alat)
               a(1) = (   1.000000   0.000000   0.000000 )  
               a(2) = (   0.000000   1.000000   0.000000 )  
               a(3) = (   0.000000   0.000000   1.375000 )  

     reciprocal axes: (cart. coord. in units 2 pi/alat)
               b(1) = (  1.000000  0.000000  0.000000 )  
               b(2) = (  0.000000  1.000000  0.000000 )  
               b(3) = (  0.000000  0.000000  0.727273 )  


     PseudoPot. # 1 for Sr read from file:
     ../../pseudo/Sr.pz-spn-kjpaw_psl.1.0.0.UPF
     MD5 check sum: 14b1f655f5497b386c4f305353cf4fd4
     Pseudo is Projector augmented-wave + core cor, Zval = 10.0
     Generated using 'atomic' code by A. Dal Corso  v.7.3
     Shape of augmentation charge: PSQ
     Using radial grid of 1221 points,  6 beta functions with: 
                l(1) =   0
                l(2) =   0
                l(3) =   1
                l(4) =   1
                l(5) =   2
                l(6) =   2
     Q(r) pseudized with 0 coefficients 


     PseudoPot. # 2 for Mo read from file:
     ../../pseudo/Mo.pz-spn-kjpaw_psl.1.0.0.UPF
     MD5 check sum: 2e12aff744a4785a34e7548d4bec1d21
     Pseudo is Projector augmented-wave + core cor, Zval = 14.0
     Generated using 'atomic' code by A. Dal Corso  v.7.3
     Shape of augmentation charge: PSQ
     Using radial grid of 1229 points,  6 beta functions with: 
                l(1) =   0
                l(2) =   0
                l(3) =   1
                l(4) =   1
                l(5) =   2
                l(6) =   2
     Q(r) pseudized with 0 coefficients 


     PseudoPot. # 3 for O  read from file:
     ../../pseudo/O.pz-n-kjpaw_psl.1.0.0.UPF
     MD5 check sum: 71a951e35f67dc87891058fc5642ed8f
     Pseudo is Projector augmented-wave + core cor, Zval =  6.0
     Generated using 'atomic' code by A. Dal Corso  v.7.3
     Shape of augmentation charge: PSQ
     Using radial grid of 1095 points,  4 beta functions with: 
                l(1) =   0
                l(2) =   0
                l(3) =   1
                l(4) =   1
     Q(r) pseudized with 0 coefficients 


     atomic species   valence    mass     pseudopotential
     Sr               10.00    87.62000     Sr( 1.00)
     Mo               14.00    95.95000     Mo( 1.00)
     O                 6.00    15.99900     O ( 1.00)

     No symmetry found


                                    s                        frac. trans.

      isym =  1     identity                                     

 cryst.   s( 1) = (     1          0          0      )
                  (     0          1          0      )
                  (     0          0          1      )

 cart.    s( 1) = (  1.0000000  0.0000000  0.0000000 )
                  (  0.0000000  1.0000000  0.0000000 )
                  (  0.0000000  0.0000000  1.0000000 )


   Cartesian axes

     site n.     atom                  positions (alat units)
         1        Sr     tau(   1) = (   0.0000000   0.5000000   0.3437500  )
         2        Sr     tau(   2) = (   0.0000000   0.5000000   1.0312500  )
         3        Sr     tau(   3) = (   0.5000000   0.0000000   1.0312500  )
         4        Sr     tau(   4) = (   0.5000000   0.0000000   0.3437500  )
         5        Mo     tau(   5) = (   0.0000000   0.0000000   0.0000000  )
         6        Mo     tau(   6) = (   0.0000000   0.0000000   0.6875000  )
         7        Mo     tau(   7) = (   0.5000000   0.5000000   0.6875000  )
         8        Mo     tau(   8) = (   0.5000000   0.5000000   0.0000000  )
         9        O      tau(   9) = (   0.2500000   0.7500000   0.0000000  )
        10        O      tau(  10) = (   0.2500000   0.2500000   0.0000000  )
        11        O      tau(  11) = (   0.7500000   0.2500000   0.6875000  )
        12        O      tau(  12) = (   0.7500000   0.7500000   0.6875000  )
        13        O      tau(  13) = (   0.7500000   0.2500000   0.0000000  )
        14        O      tau(  14) = (   0.7500000   0.7500000   0.0000000  )
        15        O      tau(  15) = (   0.2500000   0.7500000   0.6875000  )
        16        O      tau(  16) = (   0.2500000   0.2500000   0.6875000  )
        17        O      tau(  17) = (   0.0000000   0.0000000   0.3437500  )
        18        O      tau(  18) = (   0.0000000   0.0000000   1.0312500  )
        19        O      tau(  19) = (   0.5000000   0.5000000   1.0312500  )
        20        O      tau(  20) = (   0.5000000   0.5000000   0.3437500  )

   Crystallographic axes

     site n.     atom                  positions (cryst. coord.)
         1        Sr     tau(   1) = (  0.0000000  0.5000000  0.2500000  )
         2        Sr     tau(   2) = (  0.0000000  0.5000000  0.7500000  )
         3        Sr     tau(   3) = (  0.5000000  0.0000000  0.7500000  )
         4        Sr     tau(   4) = (  0.5000000  0.0000000  0.2500000  )
         5        Mo     tau(   5) = (  0.0000000  0.0000000  0.0000000  )
         6        Mo     tau(   6) = (  0.0000000  0.0000000  0.5000000  )
         7        Mo     tau(   7) = (  0.5000000  0.5000000  0.5000000  )
         8        Mo     tau(   8) = (  0.5000000  0.5000000  0.0000000  )
         9        O      tau(   9) = (  0.2500000  0.7500000  0.0000000  )
        10        O      tau(  10) = (  0.2500000  0.2500000  0.0000000  )
        11        O      tau(  11) = (  0.7500000  0.2500000  0.5000000  )
        12        O      tau(  12) = (  0.7500000  0.7500000  0.5000000  )
        13        O      tau(  13) = (  0.7500000  0.2500000  0.0000000  )
        14        O      tau(  14) = (  0.7500000  0.7500000  0.0000000  )
        15        O      tau(  15) = (  0.2500000  0.7500000  0.5000000  )
        16        O      tau(  16) = (  0.2500000  0.2500000  0.5000000  )
        17        O      tau(  17) = (  0.0000000  0.0000000  0.2500000  )
        18        O      tau(  18) = (  0.0000000  0.0000000  0.7500000  )
        19        O      tau(  19) = (  0.5000000  0.5000000  0.7500000  )
        20        O      tau(  20) = (  0.5000000  0.5000000  0.2500000  )

     number of k points=   125  Fermi-Dirac smearing, width (Ry)=  0.0015
                       cart. coord. in units 2pi/alat
        k(    1) = (   0.0000000   0.0000000   0.0000000), wk =   0.0160000
        k(    2) = (   0.0000000   0.0000000   0.1454545), wk =   0.0160000
        k(    3) = (   0.0000000   0.0000000   0.2909091), wk =   0.0160000
        k(    4) = (   0.0000000   0.0000000   0.4363636), wk =   0.0160000
        k(    5) = (   0.0000000   0.0000000   0.5818182), wk =   0.0160000
        k(    6) = (   0.0000000   0.2000000   0.0000000), wk =   0.0160000
        k(    7) = (   0.0000000   0.2000000   0.1454545), wk =   0.0160000
        k(    8) = (   0.0000000   0.2000000   0.2909091), wk =   0.0160000
        k(    9) = (   0.0000000   0.2000000   0.4363636), wk =   0.0160000
        k(   10) = (   0.0000000   0.2000000   0.5818182), wk =   0.0160000
        k(   11) = (   0.0000000   0.4000000   0.0000000), wk =   0.0160000
        k(   12) = (   0.0000000   0.4000000   0.1454545), wk =   0.0160000
        k(   13) = (   0.0000000   0.4000000   0.2909091), wk =   0.0160000
        k(   14) = (   0.0000000   0.4000000   0.4363636), wk =   0.0160000
        k(   15) = (   0.0000000   0.4000000   0.5818182), wk =   0.0160000
        k(   16) = (   0.0000000   0.6000000   0.0000000), wk =   0.0160000
        k(   17) = (   0.0000000   0.6000000   0.1454545), wk =   0.0160000
        k(   18) = (   0.0000000   0.6000000   0.2909091), wk =   0.0160000
        k(   19) = (   0.0000000   0.6000000   0.4363636), wk =   0.0160000
        k(   20) = (   0.0000000   0.6000000   0.5818182), wk =   0.0160000
        k(   21) = (   0.0000000   0.8000000   0.0000000), wk =   0.0160000
        k(   22) = (   0.0000000   0.8000000   0.1454545), wk =   0.0160000
        k(   23) = (   0.0000000   0.8000000   0.2909091), wk =   0.0160000
        k(   24) = (   0.0000000   0.8000000   0.4363636), wk =   0.0160000
        k(   25) = (   0.0000000   0.8000000   0.5818182), wk =   0.0160000
        k(   26) = (   0.2000000   0.0000000   0.0000000), wk =   0.0160000
        k(   27) = (   0.2000000   0.0000000   0.1454545), wk =   0.0160000
        k(   28) = (   0.2000000   0.0000000   0.2909091), wk =   0.0160000
        k(   29) = (   0.2000000   0.0000000   0.4363636), wk =   0.0160000
        k(   30) = (   0.2000000   0.0000000   0.5818182), wk =   0.0160000
        k(   31) = (   0.2000000   0.2000000   0.0000000), wk =   0.0160000
        k(   32) = (   0.2000000   0.2000000   0.1454545), wk =   0.0160000
        k(   33) = (   0.2000000   0.2000000   0.2909091), wk =   0.0160000
        k(   34) = (   0.2000000   0.2000000   0.4363636), wk =   0.0160000
        k(   35) = (   0.2000000   0.2000000   0.5818182), wk =   0.0160000
        k(   36) = (   0.2000000   0.4000000   0.0000000), wk =   0.0160000
        k(   37) = (   0.2000000   0.4000000   0.1454545), wk =   0.0160000
        k(   38) = (   0.2000000   0.4000000   0.2909091), wk =   0.0160000
        k(   39) = (   0.2000000   0.4000000   0.4363636), wk =   0.0160000
        k(   40) = (   0.2000000   0.4000000   0.5818182), wk =   0.0160000
        k(   41) = (   0.2000000   0.6000000   0.0000000), wk =   0.0160000
        k(   42) = (   0.2000000   0.6000000   0.1454545), wk =   0.0160000
        k(   43) = (   0.2000000   0.6000000   0.2909091), wk =   0.0160000
        k(   44) = (   0.2000000   0.6000000   0.4363636), wk =   0.0160000
        k(   45) = (   0.2000000   0.6000000   0.5818182), wk =   0.0160000
        k(   46) = (   0.2000000   0.8000000   0.0000000), wk =   0.0160000
        k(   47) = (   0.2000000   0.8000000   0.1454545), wk =   0.0160000
        k(   48) = (   0.2000000   0.8000000   0.2909091), wk =   0.0160000
        k(   49) = (   0.2000000   0.8000000   0.4363636), wk =   0.0160000
        k(   50) = (   0.2000000   0.8000000   0.5818182), wk =   0.0160000
        k(   51) = (   0.4000000   0.0000000   0.0000000), wk =   0.0160000
        k(   52) = (   0.4000000   0.0000000   0.1454545), wk =   0.0160000
        k(   53) = (   0.4000000   0.0000000   0.2909091), wk =   0.0160000
        k(   54) = (   0.4000000   0.0000000   0.4363636), wk =   0.0160000
        k(   55) = (   0.4000000   0.0000000   0.5818182), wk =   0.0160000
        k(   56) = (   0.4000000   0.2000000   0.0000000), wk =   0.0160000
        k(   57) = (   0.4000000   0.2000000   0.1454545), wk =   0.0160000
        k(   58) = (   0.4000000   0.2000000   0.2909091), wk =   0.0160000
        k(   59) = (   0.4000000   0.2000000   0.4363636), wk =   0.0160000
        k(   60) = (   0.4000000   0.2000000   0.5818182), wk =   0.0160000
        k(   61) = (   0.4000000   0.4000000   0.0000000), wk =   0.0160000
        k(   62) = (   0.4000000   0.4000000   0.1454545), wk =   0.0160000
        k(   63) = (   0.4000000   0.4000000   0.2909091), wk =   0.0160000
        k(   64) = (   0.4000000   0.4000000   0.4363636), wk =   0.0160000
        k(   65) = (   0.4000000   0.4000000   0.5818182), wk =   0.0160000
        k(   66) = (   0.4000000   0.6000000   0.0000000), wk =   0.0160000
        k(   67) = (   0.4000000   0.6000000   0.1454545), wk =   0.0160000
        k(   68) = (   0.4000000   0.6000000   0.2909091), wk =   0.0160000
        k(   69) = (   0.4000000   0.6000000   0.4363636), wk =   0.0160000
        k(   70) = (   0.4000000   0.6000000   0.5818182), wk =   0.0160000
        k(   71) = (   0.4000000   0.8000000   0.0000000), wk =   0.0160000
        k(   72) = (   0.4000000   0.8000000   0.1454545), wk =   0.0160000
        k(   73) = (   0.4000000   0.8000000   0.2909091), wk =   0.0160000
        k(   74) = (   0.4000000   0.8000000   0.4363636), wk =   0.0160000
        k(   75) = (   0.4000000   0.8000000   0.5818182), wk =   0.0160000
        k(   76) = (   0.6000000   0.0000000   0.0000000), wk =   0.0160000
        k(   77) = (   0.6000000   0.0000000   0.1454545), wk =   0.0160000
        k(   78) = (   0.6000000   0.0000000   0.2909091), wk =   0.0160000
        k(   79) = (   0.6000000   0.0000000   0.4363636), wk =   0.0160000
        k(   80) = (   0.6000000   0.0000000   0.5818182), wk =   0.0160000
        k(   81) = (   0.6000000   0.2000000   0.0000000), wk =   0.0160000
        k(   82) = (   0.6000000   0.2000000   0.1454545), wk =   0.0160000
        k(   83) = (   0.6000000   0.2000000   0.2909091), wk =   0.0160000
        k(   84) = (   0.6000000   0.2000000   0.4363636), wk =   0.0160000
        k(   85) = (   0.6000000   0.2000000   0.5818182), wk =   0.0160000
        k(   86) = (   0.6000000   0.4000000   0.0000000), wk =   0.0160000
        k(   87) = (   0.6000000   0.4000000   0.1454545), wk =   0.0160000
        k(   88) = (   0.6000000   0.4000000   0.2909091), wk =   0.0160000
        k(   89) = (   0.6000000   0.4000000   0.4363636), wk =   0.0160000
        k(   90) = (   0.6000000   0.4000000   0.5818182), wk =   0.0160000
        k(   91) = (   0.6000000   0.6000000   0.0000000), wk =   0.0160000
        k(   92) = (   0.6000000   0.6000000   0.1454545), wk =   0.0160000
        k(   93) = (   0.6000000   0.6000000   0.2909091), wk =   0.0160000
        k(   94) = (   0.6000000   0.6000000   0.4363636), wk =   0.0160000
        k(   95) = (   0.6000000   0.6000000   0.5818182), wk =   0.0160000
        k(   96) = (   0.6000000   0.8000000   0.0000000), wk =   0.0160000
        k(   97) = (   0.6000000   0.8000000   0.1454545), wk =   0.0160000
        k(   98) = (   0.6000000   0.8000000   0.2909091), wk =   0.0160000
        k(   99) = (   0.6000000   0.8000000   0.4363636), wk =   0.0160000
        k(  100) = (   0.6000000   0.8000000   0.5818182), wk =   0.0160000
        k(  101) = (   0.8000000   0.0000000   0.0000000), wk =   0.0160000
        k(  102) = (   0.8000000   0.0000000   0.1454545), wk =   0.0160000
        k(  103) = (   0.8000000   0.0000000   0.2909091), wk =   0.0160000
        k(  104) = (   0.8000000   0.0000000   0.4363636), wk =   0.0160000
        k(  105) = (   0.8000000   0.0000000   0.5818182), wk =   0.0160000
        k(  106) = (   0.8000000   0.2000000   0.0000000), wk =   0.0160000
        k(  107) = (   0.8000000   0.2000000   0.1454545), wk =   0.0160000
        k(  108) = (   0.8000000   0.2000000   0.2909091), wk =   0.0160000
        k(  109) = (   0.8000000   0.2000000   0.4363636), wk =   0.0160000
        k(  110) = (   0.8000000   0.2000000   0.5818182), wk =   0.0160000
        k(  111) = (   0.8000000   0.4000000   0.0000000), wk =   0.0160000
        k(  112) = (   0.8000000   0.4000000   0.1454545), wk =   0.0160000
        k(  113) = (   0.8000000   0.4000000   0.2909091), wk =   0.0160000
        k(  114) = (   0.8000000   0.4000000   0.4363636), wk =   0.0160000
        k(  115) = (   0.8000000   0.4000000   0.5818182), wk =   0.0160000
        k(  116) = (   0.8000000   0.6000000   0.0000000), wk =   0.0160000
        k(  117) = (   0.8000000   0.6000000   0.1454545), wk =   0.0160000
        k(  118) = (   0.8000000   0.6000000   0.2909091), wk =   0.0160000
        k(  119) = (   0.8000000   0.6000000   0.4363636), wk =   0.0160000
        k(  120) = (   0.8000000   0.6000000   0.5818182), wk =   0.0160000
        k(  121) = (   0.8000000   0.8000000   0.0000000), wk =   0.0160000
        k(  122) = (   0.8000000   0.8000000   0.1454545), wk =   0.0160000
        k(  123) = (   0.8000000   0.8000000   0.2909091), wk =   0.0160000
        k(  124) = (   0.8000000   0.8000000   0.4363636), wk =   0.0160000
        k(  125) = (   0.8000000   0.8000000   0.5818182), wk =   0.0160000

                       cryst. coord.
        k(    1) = (   0.0000000   0.0000000   0.0000000), wk =   0.0160000
        k(    2) = (   0.0000000   0.0000000   0.2000000), wk =   0.0160000
        k(    3) = (   0.0000000   0.0000000   0.4000000), wk =   0.0160000
        k(    4) = (   0.0000000   0.0000000   0.6000000), wk =   0.0160000
        k(    5) = (   0.0000000   0.0000000   0.8000000), wk =   0.0160000
        k(    6) = (   0.0000000   0.2000000   0.0000000), wk =   0.0160000
        k(    7) = (   0.0000000   0.2000000   0.2000000), wk =   0.0160000
        k(    8) = (   0.0000000   0.2000000   0.4000000), wk =   0.0160000
        k(    9) = (   0.0000000   0.2000000   0.6000000), wk =   0.0160000
        k(   10) = (   0.0000000   0.2000000   0.8000000), wk =   0.0160000
        k(   11) = (   0.0000000   0.4000000   0.0000000), wk =   0.0160000
        k(   12) = (   0.0000000   0.4000000   0.2000000), wk =   0.0160000
        k(   13) = (   0.0000000   0.4000000   0.4000000), wk =   0.0160000
        k(   14) = (   0.0000000   0.4000000   0.6000000), wk =   0.0160000
        k(   15) = (   0.0000000   0.4000000   0.8000000), wk =   0.0160000
        k(   16) = (   0.0000000   0.6000000   0.0000000), wk =   0.0160000
        k(   17) = (   0.0000000   0.6000000   0.2000000), wk =   0.0160000
        k(   18) = (   0.0000000   0.6000000   0.4000000), wk =   0.0160000
        k(   19) = (   0.0000000   0.6000000   0.6000000), wk =   0.0160000
        k(   20) = (   0.0000000   0.6000000   0.8000000), wk =   0.0160000
        k(   21) = (   0.0000000   0.8000000   0.0000000), wk =   0.0160000
        k(   22) = (   0.0000000   0.8000000   0.2000000), wk =   0.0160000
        k(   23) = (   0.0000000   0.8000000   0.4000000), wk =   0.0160000
        k(   24) = (   0.0000000   0.8000000   0.6000000), wk =   0.0160000
        k(   25) = (   0.0000000   0.8000000   0.8000000), wk =   0.0160000
        k(   26) = (   0.2000000   0.0000000   0.0000000), wk =   0.0160000
        k(   27) = (   0.2000000   0.0000000   0.2000000), wk =   0.0160000
        k(   28) = (   0.2000000   0.0000000   0.4000000), wk =   0.0160000
        k(   29) = (   0.2000000   0.0000000   0.6000000), wk =   0.0160000
        k(   30) = (   0.2000000   0.0000000   0.8000000), wk =   0.0160000
        k(   31) = (   0.2000000   0.2000000   0.0000000), wk =   0.0160000
        k(   32) = (   0.2000000   0.2000000   0.2000000), wk =   0.0160000
        k(   33) = (   0.2000000   0.2000000   0.4000000), wk =   0.0160000
        k(   34) = (   0.2000000   0.2000000   0.6000000), wk =   0.0160000
        k(   35) = (   0.2000000   0.2000000   0.8000000), wk =   0.0160000
        k(   36) = (   0.2000000   0.4000000   0.0000000), wk =   0.0160000
        k(   37) = (   0.2000000   0.4000000   0.2000000), wk =   0.0160000
        k(   38) = (   0.2000000   0.4000000   0.4000000), wk =   0.0160000
        k(   39) = (   0.2000000   0.4000000   0.6000000), wk =   0.0160000
        k(   40) = (   0.2000000   0.4000000   0.8000000), wk =   0.0160000
        k(   41) = (   0.2000000   0.6000000   0.0000000), wk =   0.0160000
        k(   42) = (   0.2000000   0.6000000   0.2000000), wk =   0.0160000
        k(   43) = (   0.2000000   0.6000000   0.4000000), wk =   0.0160000
        k(   44) = (   0.2000000   0.6000000   0.6000000), wk =   0.0160000
        k(   45) = (   0.2000000   0.6000000   0.8000000), wk =   0.0160000
        k(   46) = (   0.2000000   0.8000000   0.0000000), wk =   0.0160000
        k(   47) = (   0.2000000   0.8000000   0.2000000), wk =   0.0160000
        k(   48) = (   0.2000000   0.8000000   0.4000000), wk =   0.0160000
        k(   49) = (   0.2000000   0.8000000   0.6000000), wk =   0.0160000
        k(   50) = (   0.2000000   0.8000000   0.8000000), wk =   0.0160000
        k(   51) = (   0.4000000   0.0000000   0.0000000), wk =   0.0160000
        k(   52) = (   0.4000000   0.0000000   0.2000000), wk =   0.0160000
        k(   53) = (   0.4000000   0.0000000   0.4000000), wk =   0.0160000
        k(   54) = (   0.4000000   0.0000000   0.6000000), wk =   0.0160000
        k(   55) = (   0.4000000   0.0000000   0.8000000), wk =   0.0160000
        k(   56) = (   0.4000000   0.2000000   0.0000000), wk =   0.0160000
        k(   57) = (   0.4000000   0.2000000   0.2000000), wk =   0.0160000
        k(   58) = (   0.4000000   0.2000000   0.4000000), wk =   0.0160000
        k(   59) = (   0.4000000   0.2000000   0.6000000), wk =   0.0160000
        k(   60) = (   0.4000000   0.2000000   0.8000000), wk =   0.0160000
        k(   61) = (   0.4000000   0.4000000   0.0000000), wk =   0.0160000
        k(   62) = (   0.4000000   0.4000000   0.2000000), wk =   0.0160000
        k(   63) = (   0.4000000   0.4000000   0.4000000), wk =   0.0160000
        k(   64) = (   0.4000000   0.4000000   0.6000000), wk =   0.0160000
        k(   65) = (   0.4000000   0.4000000   0.8000000), wk =   0.0160000
        k(   66) = (   0.4000000   0.6000000   0.0000000), wk =   0.0160000
        k(   67) = (   0.4000000   0.6000000   0.2000000), wk =   0.0160000
        k(   68) = (   0.4000000   0.6000000   0.4000000), wk =   0.0160000
        k(   69) = (   0.4000000   0.6000000   0.6000000), wk =   0.0160000
        k(   70) = (   0.4000000   0.6000000   0.8000000), wk =   0.0160000
        k(   71) = (   0.4000000   0.8000000   0.0000000), wk =   0.0160000
        k(   72) = (   0.4000000   0.8000000   0.2000000), wk =   0.0160000
        k(   73) = (   0.4000000   0.8000000   0.4000000), wk =   0.0160000
        k(   74) = (   0.4000000   0.8000000   0.6000000), wk =   0.0160000
        k(   75) = (   0.4000000   0.8000000   0.8000000), wk =   0.0160000
        k(   76) = (   0.6000000   0.0000000   0.0000000), wk =   0.0160000
        k(   77) = (   0.6000000   0.0000000   0.2000000), wk =   0.0160000
        k(   78) = (   0.6000000   0.0000000   0.4000000), wk =   0.0160000
        k(   79) = (   0.6000000   0.0000000   0.6000000), wk =   0.0160000
        k(   80) = (   0.6000000   0.0000000   0.8000000), wk =   0.0160000
        k(   81) = (   0.6000000   0.2000000   0.0000000), wk =   0.0160000
        k(   82) = (   0.6000000   0.2000000   0.2000000), wk =   0.0160000
        k(   83) = (   0.6000000   0.2000000   0.4000000), wk =   0.0160000
        k(   84) = (   0.6000000   0.2000000   0.6000000), wk =   0.0160000
        k(   85) = (   0.6000000   0.2000000   0.8000000), wk =   0.0160000
        k(   86) = (   0.6000000   0.4000000   0.0000000), wk =   0.0160000
        k(   87) = (   0.6000000   0.4000000   0.2000000), wk =   0.0160000
        k(   88) = (   0.6000000   0.4000000   0.4000000), wk =   0.0160000
        k(   89) = (   0.6000000   0.4000000   0.6000000), wk =   0.0160000
        k(   90) = (   0.6000000   0.4000000   0.8000000), wk =   0.0160000
        k(   91) = (   0.6000000   0.6000000   0.0000000), wk =   0.0160000
        k(   92) = (   0.6000000   0.6000000   0.2000000), wk =   0.0160000
        k(   93) = (   0.6000000   0.6000000   0.4000000), wk =   0.0160000
        k(   94) = (   0.6000000   0.6000000   0.6000000), wk =   0.0160000
        k(   95) = (   0.6000000   0.6000000   0.8000000), wk =   0.0160000
        k(   96) = (   0.6000000   0.8000000   0.0000000), wk =   0.0160000
        k(   97) = (   0.6000000   0.8000000   0.2000000), wk =   0.0160000
        k(   98) = (   0.6000000   0.8000000   0.4000000), wk =   0.0160000
        k(   99) = (   0.6000000   0.8000000   0.6000000), wk =   0.0160000
        k(  100) = (   0.6000000   0.8000000   0.8000000), wk =   0.0160000
        k(  101) = (   0.8000000   0.0000000   0.0000000), wk =   0.0160000
        k(  102) = (   0.8000000   0.0000000   0.2000000), wk =   0.0160000
        k(  103) = (   0.8000000   0.0000000   0.4000000), wk =   0.0160000
        k(  104) = (   0.8000000   0.0000000   0.6000000), wk =   0.0160000
        k(  105) = (   0.8000000   0.0000000   0.8000000), wk =   0.0160000
        k(  106) = (   0.8000000   0.2000000   0.0000000), wk =   0.0160000
        k(  107) = (   0.8000000   0.2000000   0.2000000), wk =   0.0160000
        k(  108) = (   0.8000000   0.2000000   0.4000000), wk =   0.0160000
        k(  109) = (   0.8000000   0.2000000   0.6000000), wk =   0.0160000
        k(  110) = (   0.8000000   0.2000000   0.8000000), wk =   0.0160000
        k(  111) = (   0.8000000   0.4000000   0.0000000), wk =   0.0160000
        k(  112) = (   0.8000000   0.4000000   0.2000000), wk =   0.0160000
        k(  113) = (   0.8000000   0.4000000   0.4000000), wk =   0.0160000
        k(  114) = (   0.8000000   0.4000000   0.6000000), wk =   0.0160000
        k(  115) = (   0.8000000   0.4000000   0.8000000), wk =   0.0160000
        k(  116) = (   0.8000000   0.6000000   0.0000000), wk =   0.0160000
        k(  117) = (   0.8000000   0.6000000   0.2000000), wk =   0.0160000
        k(  118) = (   0.8000000   0.6000000   0.4000000), wk =   0.0160000
        k(  119) = (   0.8000000   0.6000000   0.6000000), wk =   0.0160000
        k(  120) = (   0.8000000   0.6000000   0.8000000), wk =   0.0160000
        k(  121) = (   0.8000000   0.8000000   0.0000000), wk =   0.0160000
        k(  122) = (   0.8000000   0.8000000   0.2000000), wk =   0.0160000
        k(  123) = (   0.8000000   0.8000000   0.4000000), wk =   0.0160000
        k(  124) = (   0.8000000   0.8000000   0.6000000), wk =   0.0160000
        k(  125) = (   0.8000000   0.8000000   0.8000000), wk =   0.0160000

     Dense  grid:   220317 G-vectors     FFT dimensions: (  72,  72,  96)

     Smooth grid:    77861 G-vectors     FFT dimensions: (  48,  48,  72)

     Dynamical RAM for                 wfc:       0.47 MB

     Dynamical RAM for     wfc (w. buffer):       0.47 MB

     Dynamical RAM for           str. fact:       0.32 MB

     Dynamical RAM for           local pot:       0.00 MB

     Dynamical RAM for          nlocal pot:       1.11 MB

     Dynamical RAM for                qrad:       4.82 MB

     Dynamical RAM for          rho,v,vnew:       0.67 MB

     Dynamical RAM for           G-vectors:       0.41 MB

     Dynamical RAM for          h,s,v(r/c):      29.89 MB

     Dynamical RAM for          <psi|beta>:       0.37 MB

     Dynamical RAM for                 psi:       3.75 MB

     Dynamical RAM for                hpsi:       3.75 MB

     Dynamical RAM for                spsi:       3.75 MB

     Dynamical RAM for      wfcinit/wfcrot:       1.44 MB

     Dynamical RAM for           addusdens:      10.46 MB

     Estimated static dynamical RAM per process >       8.81 MB

     Estimated max dynamical RAM per process >      50.31 MB

     Estimated total dynamical RAM >       3.14 GB

     Check: negative core charge=   -0.000003

     The potential is recalculated from file :
     ./out/smo.save/charge-density

     Starting wfcs are  120 randomized atomic wfcs
     Checking if some PAW data can be deallocated... 
       PAW data deallocated on   48 nodes for type:  1
       PAW data deallocated on   52 nodes for type:  2
       PAW data deallocated on   28 nodes for type:  3

     Band Structure Calculation
     Davidson diagonalization with overlap

     Computing kpt #:     1  of    63 on this pool
     c_bands:  1 eigenvalues not converged
     total cpu time spent up to now is        5.5 secs

     Computing kpt #:     2  of    63 on this pool
     total cpu time spent up to now is        9.4 secs

     Computing kpt #:     3  of    63 on this pool
     c_bands:  1 eigenvalues not converged
     total cpu time spent up to now is       14.1 secs

     Computing kpt #:     4  of    63 on this pool
     c_bands:  1 eigenvalues not converged
     total cpu time spent up to now is       19.0 secs

     Computing kpt #:     5  of    63 on this pool
     total cpu time spent up to now is       22.1 secs

     Computing kpt #:     6  of    63 on this pool
     total cpu time spent up to now is       25.1 secs

     Computing kpt #:     7  of    63 on this pool
     c_bands:  1 eigenvalues not converged
     total cpu time spent up to now is       30.4 secs

     Computing kpt #:     8  of    63 on this pool
     total cpu time spent up to now is       33.1 secs

     Computing kpt #:     9  of    63 on this pool
     total cpu time spent up to now is       36.0 secs

     Computing kpt #:    10  of    63 on this pool
     c_bands:  1 eigenvalues not converged
     total cpu time spent up to now is       40.4 secs

     Computing kpt #:    11  of    63 on this pool
     c_bands:  1 eigenvalues not converged
     total cpu time spent up to now is       45.3 secs

     Computing kpt #:    12  of    63 on this pool
     c_bands:  1 eigenvalues not converged
     total cpu time spent up to now is       49.7 secs

     Computing kpt #:    13  of    63 on this pool
     c_bands:  2 eigenvalues not converged
     total cpu time spent up to now is       55.0 secs

     Computing kpt #:    14  of    63 on this pool
     c_bands:  2 eigenvalues not converged
     total cpu time spent up to now is       60.3 secs

     Computing kpt #:    15  of    63 on this pool
     c_bands:  1 eigenvalues not converged
     total cpu time spent up to now is       65.9 secs

     Computing kpt #:    16  of    63 on this pool
     c_bands:  1 eigenvalues not converged
     total cpu time spent up to now is       71.5 secs

     Computing kpt #:    17  of    63 on this pool
     c_bands:  1 eigenvalues not converged
     total cpu time spent up to now is       76.8 secs

     Computing kpt #:    18  of    63 on this pool
     c_bands:  1 eigenvalues not converged
     total cpu time spent up to now is       81.6 secs

     Computing kpt #:    19  of    63 on this pool
     c_bands:  2 eigenvalues not converged
     total cpu time spent up to now is       86.4 secs

     Computing kpt #:    20  of    63 on this pool
     c_bands:  1 eigenvalues not converged
     total cpu time spent up to now is       91.8 secs

     Computing kpt #:    21  of    63 on this pool
     total cpu time spent up to now is       97.2 secs

     Computing kpt #:    22  of    63 on this pool
     c_bands:  1 eigenvalues not converged
     total cpu time spent up to now is      101.8 secs

     Computing kpt #:    23  of    63 on this pool
     total cpu time spent up to now is      104.6 secs

     Computing kpt #:    24  of    63 on this pool
     total cpu time spent up to now is      108.2 secs

     Computing kpt #:    25  of    63 on this pool
     c_bands:  1 eigenvalues not converged
     total cpu time spent up to now is      112.8 secs

     Computing kpt #:    26  of    63 on this pool
     total cpu time spent up to now is      115.5 secs

     Computing kpt #:    27  of    63 on this pool
     c_bands:  1 eigenvalues not converged
     total cpu time spent up to now is      120.2 secs

     Computing kpt #:    28  of    63 on this pool
     total cpu time spent up to now is      123.8 secs

     Computing kpt #:    29  of    63 on this pool
     total cpu time spent up to now is      127.1 secs

     Computing kpt #:    30  of    63 on this pool
     c_bands:  1 eigenvalues not converged
     total cpu time spent up to now is      131.7 secs

     Computing kpt #:    31  of    63 on this pool
     total cpu time spent up to now is      134.3 secs

     Computing kpt #:    32  of    63 on this pool
     c_bands:  1 eigenvalues not converged
     total cpu time spent up to now is      138.9 secs

     Computing kpt #:    33  of    63 on this pool
     c_bands:  1 eigenvalues not converged
     total cpu time spent up to now is      143.4 secs

     Computing kpt #:    34  of    63 on this pool
     c_bands:  1 eigenvalues not converged
     total cpu time spent up to now is      148.0 secs

     Computing kpt #:    35  of    63 on this pool
     c_bands:  1 eigenvalues not converged
     total cpu time spent up to now is      153.5 secs

     Computing kpt #:    36  of    63 on this pool
     total cpu time spent up to now is      156.9 secs

     Computing kpt #:    37  of    63 on this pool
     total cpu time spent up to now is      159.4 secs

     Computing kpt #:    38  of    63 on this pool
     total cpu time spent up to now is      162.5 secs

     Computing kpt #:    39  of    63 on this pool
     total cpu time spent up to now is      167.8 secs

     Computing kpt #:    40  of    63 on this pool
     total cpu time spent up to now is      171.1 secs

     Computing kpt #:    41  of    63 on this pool
     total cpu time spent up to now is      175.0 secs

     Computing kpt #:    42  of    63 on this pool
     total cpu time spent up to now is      180.7 secs

     Computing kpt #:    43  of    63 on this pool
     total cpu time spent up to now is      184.4 secs

     Computing kpt #:    44  of    63 on this pool
     total cpu time spent up to now is      190.1 secs

     Computing kpt #:    45  of    63 on this pool
     total cpu time spent up to now is      195.6 secs

     Computing kpt #:    46  of    63 on this pool
     total cpu time spent up to now is      200.9 secs

     Computing kpt #:    47  of    63 on this pool
     c_bands:  1 eigenvalues not converged
     total cpu time spent up to now is      206.0 secs

     Computing kpt #:    48  of    63 on this pool
     total cpu time spent up to now is      209.5 secs

     Computing kpt #:    49  of    63 on this pool
     c_bands:  1 eigenvalues not converged
     total cpu time spent up to now is      213.9 secs

     Computing kpt #:    50  of    63 on this pool
     c_bands:  1 eigenvalues not converged
     total cpu time spent up to now is      218.3 secs

     Computing kpt #:    51  of    63 on this pool
     c_bands:  1 eigenvalues not converged
     total cpu time spent up to now is      222.7 secs

     Computing kpt #:    52  of    63 on this pool
     c_bands:  1 eigenvalues not converged
     total cpu time spent up to now is      227.2 secs

     Computing kpt #:    53  of    63 on this pool
     c_bands:  2 eigenvalues not converged
     total cpu time spent up to now is      231.9 secs

     Computing kpt #:    54  of    63 on this pool
     c_bands:  2 eigenvalues not converged
     total cpu time spent up to now is      236.6 secs

     Computing kpt #:    55  of    63 on this pool
     c_bands:  1 eigenvalues not converged
     total cpu time spent up to now is      241.1 secs

     Computing kpt #:    56  of    63 on this pool
     total cpu time spent up to now is      246.5 secs

     Computing kpt #:    57  of    63 on this pool
     total cpu time spent up to now is      249.1 secs

     Computing kpt #:    58  of    63 on this pool
     c_bands:  1 eigenvalues not converged
     total cpu time spent up to now is      253.7 secs

     Computing kpt #:    59  of    63 on this pool
     c_bands:  1 eigenvalues not converged
     total cpu time spent up to now is      259.0 secs

     Computing kpt #:    60  of    63 on this pool
     total cpu time spent up to now is      264.3 secs

     Computing kpt #:    61  of    63 on this pool
     total cpu time spent up to now is      269.6 secs

     Computing kpt #:    62  of    63 on this pool
     total cpu time spent up to now is      274.9 secs

     Computing kpt #:    63  of    63 on this pool
     total cpu time spent up to now is      276.8 secs

     ethr =  5.95E-12,  avg # of iterations = 74.8

     total cpu time spent up to now is      276.8 secs

     End of band structure calculation

          k = 0.0000 0.0000 0.0000 (  9709 PWs)   bands (ev):

   -48.2363 -48.2338 -48.2333 -48.2310 -22.7496 -22.7288 -22.6149 -22.6079
   -22.5489 -22.5489 -22.5424 -22.5424 -22.4664 -22.4664 -22.4605 -22.4605
   -21.4813 -21.4424 -21.4383 -21.4196  -6.4777  -6.3989  -6.1594  -5.7072
    -5.4853  -5.4376  -5.2482  -5.2482  -4.9057  -4.8756  -4.6917  -4.6917
    -3.8266  -3.7962  -3.7962  -3.5338  -3.5338  -3.4834  -3.4834  -3.4799
    -3.3828  -3.0316  -3.0316  -2.9354   5.2676   5.3294   5.7314   5.7544
     5.9034   5.9298   6.1382   6.5196   6.5196   6.8861   7.7280   7.7280
     7.7361   7.7361   8.2557   8.2557   8.2676   8.2676   8.3852   8.4228
     8.8208   9.0023   9.0023   9.2966   9.5354   9.5354   9.7068  10.0636
    10.0636  10.3080  10.3346  10.3346  10.7389  10.7948  10.7948  10.8423
    12.2352  12.2352  12.2373  12.4993  15.0134  15.0134  15.3193  15.3193
    15.8050  16.0870  16.1752  16.1823  16.2115  16.3349  16.3349  16.3498
    16.4106  16.8568  17.6055  17.8061  17.8061

     occupation numbers 
     1.0000   1.0000   1.0000   1.0000   1.0000   1.0000   1.0000   1.0000
     1.0000   1.0000   1.0000   1.0000   1.0000   1.0000   1.0000   1.0000
     1.0000   1.0000   1.0000   1.0000   1.0000   1.0000   1.0000   1.0000
     1.0000   1.0000   1.0000   1.0000   1.0000   1.0000   1.0000   1.0000
     1.0000   1.0000   1.0000   1.0000   1.0000   1.0000   1.0000   1.0000
     1.0000   1.0000   1.0000   1.0000   1.0000   1.0000   1.0000   1.0000
     1.0000   1.0000   1.0000   1.0000   1.0000   1.0000   1.0000   1.0000
     1.0000   1.0000   1.0000   1.0000   1.0000   1.0000   1.0000   1.0000
     1.0000   1.0000   1.0000   1.0000   1.0000   1.0000   1.0000   1.0000
     1.0000   1.0000   1.0000   1.0000   1.0000   1.0000   1.0000   1.0000
     1.0000   1.0000   1.0000   1.0000   0.0000   0.0000   0.0000   0.0000
     0.0000   0.0000   0.0000   0.0000   0.0000   0.0000   0.0000   0.0000
     0.0000   0.0000   0.0000   0.0000   0.0000

          k = 0.0000 0.0000 0.1455 (  9725 PWs)   bands (ev):

   -48.2362 -48.2339 -48.2331 -48.2315 -22.7370 -22.7177 -22.6283 -22.6196
   -22.5483 -22.5483 -22.5431 -22.5431 -22.4659 -22.4659 -22.4611 -22.4611
   -21.4770 -21.4422 -21.4402 -21.4218  -6.4411  -6.3433  -6.0531  -5.7193
    -5.4808  -5.4422  -5.2119  -5.2119  -5.0387  -5.0190  -4.7783  -4.7783
    -3.7868  -3.6902  -3.6902  -3.5290  -3.5290  -3.4883  -3.4883  -3.4281
    -3.4183  -3.0882  -3.0882  -2.9802   5.5276   5.6354   5.7336   5.7522
     5.9077   6.0221   6.1950   6.5890   6.5890   6.7954   7.5059   7.5059
     7.7901   7.7901   8.1696   8.2167   8.2167   8.3336   8.3336   8.4882
     8.8382   8.8934   9.2893   9.2893   9.3249   9.3249   9.6068   9.9433
    10.0781  10.0781  10.2741  10.2741  10.6720  10.6720  10.7486  10.8322
    12.2606  12.4724  12.6155  12.6155  15.0443  15.0443  15.0998  15.0998
    15.8431  16.1305  16.1305  16.1430  16.1904  16.2097  16.2731  16.5389
    16.6952  17.2635  17.6820  18.0465  18.0653

     occupation numbers 
     1.0000   1.0000   1.0000   1.0000   1.0000   1.0000   1.0000   1.0000
     1.0000   1.0000   1.0000   1.0000   1.0000   1.0000   1.0000   1.0000
     1.0000   1.0000   1.0000   1.0000   1.0000   1.0000   1.0000   1.0000
     1.0000   1.0000   1.0000   1.0000   1.0000   1.0000   1.0000   1.0000
     1.0000   1.0000   1.0000   1.0000   1.0000   1.0000   1.0000   1.0000
     1.0000   1.0000   1.0000   1.0000   1.0000   1.0000   1.0000   1.0000
     1.0000   1.0000   1.0000   1.0000   1.0000   1.0000   1.0000   1.0000
     1.0000   1.0000   1.0000   1.0000   1.0000   1.0000   1.0000   1.0000
     1.0000   1.0000   1.0000   1.0000   1.0000   1.0000   1.0000   1.0000
     1.0000   1.0000   1.0000   1.0000   1.0000   1.0000   1.0000   1.0000
     1.0000   1.0000   1.0000   1.0000   0.0000   0.0000   0.0000   0.0000
     0.0000   0.0000   0.0000   0.0000   0.0000   0.0000   0.0000   0.0000
     0.0000   0.0000   0.0000   0.0000   0.0000

          k = 0.0000 0.0000 0.2909 (  9708 PWs)   bands (ev):

   -48.2355 -48.2346 -48.2325 -48.2319 -22.7040 -22.6877 -22.6625 -22.6501
   -22.5467 -22.5467 -22.5447 -22.5447 -22.4645 -22.4645 -22.4626 -22.4626
   -21.4659 -21.4526 -21.4345 -21.4275  -6.3512  -6.2855  -5.7614  -5.6380
    -5.4689  -5.4542  -5.3692  -5.3509  -5.1071  -5.1071  -4.9493  -4.9493
    -3.6803  -3.5434  -3.5165  -3.5165  -3.5009  -3.5009  -3.4678  -3.4678
    -3.2692  -3.2456  -3.2456  -3.1032   5.7393   5.7464   5.8649   5.9122
     6.2624   6.4374   6.5575   6.7064   6.7935   6.7935   7.1176   7.1176
     7.4245   7.7887   7.9426   7.9426   8.1050   8.1050   8.5427   8.5427
     8.7913   8.9033   8.9033   9.0933   9.2922   9.3637   9.8245   9.8245
    10.1207  10.1207  10.1882  10.1882  10.3264  10.3264  10.7740  10.8060
    12.3231  12.4039  13.4405  13.4405  14.3373  14.3373  15.3507  15.3507
    15.7279  15.7279  15.9404  16.0552  16.1982  16.2048  16.7671  17.0414
    17.3232  17.4350  17.6648  17.8880  18.1299

     occupation numbers 
     1.0000   1.0000   1.0000   1.0000   1.0000   1.0000   1.0000   1.0000
     1.0000   1.0000   1.0000   1.0000   1.0000   1.0000   1.0000   1.0000
     1.0000   1.0000   1.0000   1.0000   1.0000   1.0000   1.0000   1.0000
     1.0000   1.0000   1.0000   1.0000   1.0000   1.0000   1.0000   1.0000
     1.0000   1.0000   1.0000   1.0000   1.0000   1.0000   1.0000   1.0000
     1.0000   1.0000   1.0000   1.0000   1.0000   1.0000   1.0000   1.0000
     1.0000   1.0000   1.0000   1.0000   1.0000   1.0000   1.0000   1.0000
     1.0000   1.0000   1.0000   1.0000   1.0000   1.0000   1.0000   1.0000
     1.0000   1.0000   1.0000   1.0000   1.0000   1.0000   1.0000   1.0000
     1.0000   1.0000   1.0000   1.0000   1.0000   1.0000   1.0000   1.0000
     1.0000   1.0000   1.0000   1.0000   0.4525   0.4525   0.0000   0.0000
     0.0000   0.0000   0.0000   0.0000   0.0000   0.0000   0.0000   0.0000
     0.0000   0.0000   0.0000   0.0000   0.0000

          k = 0.0000 0.0000 0.4364 (  9708 PWs)   bands (ev):

   -48.2355 -48.2346 -48.2325 -48.2319 -22.7040 -22.6877 -22.6625 -22.6501
   -22.5467 -22.5467 -22.5447 -22.5447 -22.4645 -22.4645 -22.4626 -22.4626
   -21.4659 -21.4526 -21.4345 -21.4275  -6.3512  -6.2855  -5.7614  -5.6380
    -5.4689  -5.4542  -5.3692  -5.3509  -5.1071  -5.1071  -4.9493  -4.9493
    -3.6803  -3.5434  -3.5165  -3.5165  -3.5009  -3.5009  -3.4678  -3.4678
    -3.2692  -3.2456  -3.2456  -3.1032   5.7393   5.7464   5.8649   5.9122
     6.2624   6.4374   6.5575   6.7064   6.7935   6.7935   7.1176   7.1176
     7.4245   7.7887   7.9426   7.9426   8.1050   8.1050   8.5427   8.5427
     8.7913   8.9033   8.9033   9.0933   9.2922   9.3637   9.8245   9.8245
    10.1207  10.1207  10.1882  10.1882  10.3264  10.3264  10.7740  10.8060
    12.3231  12.4039  13.4405  13.4405  14.3373  14.3373  15.3507  15.3507
    15.7279  15.7279  15.9404  16.0552  16.1982  16.2048  16.7671  17.0414
    17.3232  17.4350  17.6648  17.8880  18.1299

     occupation numbers 
     1.0000   1.0000   1.0000   1.0000   1.0000   1.0000   1.0000   1.0000
     1.0000   1.0000   1.0000   1.0000   1.0000   1.0000   1.0000   1.0000
     1.0000   1.0000   1.0000   1.0000   1.0000   1.0000   1.0000   1.0000
     1.0000   1.0000   1.0000   1.0000   1.0000   1.0000   1.0000   1.0000
     1.0000   1.0000   1.0000   1.0000   1.0000   1.0000   1.0000   1.0000
     1.0000   1.0000   1.0000   1.0000   1.0000   1.0000   1.0000   1.0000
     1.0000   1.0000   1.0000   1.0000   1.0000   1.0000   1.0000   1.0000
     1.0000   1.0000   1.0000   1.0000   1.0000   1.0000   1.0000   1.0000
     1.0000   1.0000   1.0000   1.0000   1.0000   1.0000   1.0000   1.0000
     1.0000   1.0000   1.0000   1.0000   1.0000   1.0000   1.0000   1.0000
     1.0000   1.0000   1.0000   1.0000   0.4525   0.4525   0.0000   0.0000
     0.0000   0.0000   0.0000   0.0000   0.0000   0.0000   0.0000   0.0000
     0.0000   0.0000   0.0000   0.0000   0.0000

          k = 0.0000 0.0000 0.5818 (  9725 PWs)   bands (ev):

   -48.2362 -48.2339 -48.2331 -48.2315 -22.7370 -22.7177 -22.6283 -22.6196
   -22.5483 -22.5483 -22.5431 -22.5431 -22.4659 -22.4659 -22.4611 -22.4611
   -21.4770 -21.4422 -21.4402 -21.4218  -6.4411  -6.3433  -6.0531  -5.7193
    -5.4808  -5.4422  -5.2119  -5.2119  -5.0387  -5.0190  -4.7783  -4.7783
    -3.7868  -3.6902  -3.6902  -3.5290  -3.5290  -3.4883  -3.4883  -3.4281
    -3.4183  -3.0882  -3.0882  -2.9802   5.5276   5.6354   5.7336   5.7522
     5.9077   6.0221   6.1950   6.5890   6.5890   6.7954   7.5059   7.5059
     7.7901   7.7901   8.1696   8.2167   8.2167   8.3336   8.3336   8.4882
     8.8382   8.8934   9.2893   9.2893   9.3249   9.3249   9.6068   9.9433
    10.0781  10.0781  10.2741  10.2741  10.6720  10.6720  10.7486  10.8322
    12.2606  12.4724  12.6155  12.6155  15.0443  15.0443  15.0998  15.0998
    15.8431  16.1305  16.1305  16.1430  16.1904  16.2097  16.2731  16.5389
    16.6952  17.2635  17.6820  18.0465  18.0653

     occupation numbers 
     1.0000   1.0000   1.0000   1.0000   1.0000   1.0000   1.0000   1.0000
     1.0000   1.0000   1.0000   1.0000   1.0000   1.0000   1.0000   1.0000
     1.0000   1.0000   1.0000   1.0000   1.0000   1.0000   1.0000   1.0000
     1.0000   1.0000   1.0000   1.0000   1.0000   1.0000   1.0000   1.0000
     1.0000   1.0000   1.0000   1.0000   1.0000   1.0000   1.0000   1.0000
     1.0000   1.0000   1.0000   1.0000   1.0000   1.0000   1.0000   1.0000
     1.0000   1.0000   1.0000   1.0000   1.0000   1.0000   1.0000   1.0000
     1.0000   1.0000   1.0000   1.0000   1.0000   1.0000   1.0000   1.0000
     1.0000   1.0000   1.0000   1.0000   1.0000   1.0000   1.0000   1.0000
     1.0000   1.0000   1.0000   1.0000   1.0000   1.0000   1.0000   1.0000
     1.0000   1.0000   1.0000   1.0000   0.0000   0.0000   0.0000   0.0000
     0.0000   0.0000   0.0000   0.0000   0.0000   0.0000   0.0000   0.0000
     0.0000   0.0000   0.0000   0.0000   0.0000

          k = 0.0000 0.2000 0.0000 (  9718 PWs)   bands (ev):

   -48.2359 -48.2337 -48.2337 -48.2312 -22.7466 -22.7299 -22.6143 -22.6085
   -22.5439 -22.5411 -22.5348 -22.5346 -22.4773 -22.4744 -22.4688 -22.4685
   -21.4737 -21.4426 -21.4378 -21.4227  -6.4206  -6.3504  -6.2474  -5.6463
    -5.4598  -5.3739  -5.2678  -5.2335  -4.9826  -4.9742  -4.9666  -4.7720
    -3.7670  -3.6521  -3.6290  -3.5139  -3.4970  -3.4724  -3.4453  -3.3940
    -3.3894  -3.0932  -3.0647  -2.9886   5.2868   5.3242   5.9950   6.0183
     6.1062   6.2219   6.3957   6.4205   6.5665   6.9951   7.0996   7.4226
     7.8224   7.8578   7.9814   8.0258   8.1242   8.2036   8.3779   8.8888
     9.0022   9.0168   9.0682   9.2324   9.3466   9.3725   9.5176   9.5256
     9.7669   9.8160  10.0282  10.1324  10.5962  10.6106  10.6265  10.7072
    12.5375  12.6467  12.8238  13.0494  14.7506  14.8148  15.3343  15.3451
    15.5134  15.8443  16.1193  16.1754  16.4266  16.6568  16.7439  16.8472
    16.8496  17.1933  17.8448  18.0609  18.0784

     occupation numbers 
     1.0000   1.0000   1.0000   1.0000   1.0000   1.0000   1.0000   1.0000
     1.0000   1.0000   1.0000   1.0000   1.0000   1.0000   1.0000   1.0000
     1.0000   1.0000   1.0000   1.0000   1.0000   1.0000   1.0000   1.0000
     1.0000   1.0000   1.0000   1.0000   1.0000   1.0000   1.0000   1.0000
     1.0000   1.0000   1.0000   1.0000   1.0000   1.0000   1.0000   1.0000
     1.0000   1.0000   1.0000   1.0000   1.0000   1.0000   1.0000   1.0000
     1.0000   1.0000   1.0000   1.0000   1.0000   1.0000   1.0000   1.0000
     1.0000   1.0000   1.0000   1.0000   1.0000   1.0000   1.0000   1.0000
     1.0000   1.0000   1.0000   1.0000   1.0000   1.0000   1.0000   1.0000
     1.0000   1.0000   1.0000   1.0000   1.0000   1.0000   1.0000   1.0000
     1.0000   1.0000   1.0000   1.0000   0.0000   0.0000   0.0000   0.0000
     0.0000   0.0000   0.0000   0.0000   0.0000   0.0000   0.0000   0.0000
     0.0000   0.0000   0.0000   0.0000   0.0000

          k = 0.0000 0.2000 0.1455 (  9717 PWs)   bands (ev):

   -48.2358 -48.2339 -48.2333 -48.2316 -22.7344 -22.7185 -22.6273 -22.6202
   -22.5430 -22.5404 -22.5358 -22.5353 -22.4766 -22.4738 -22.4696 -22.4690
   -21.4701 -21.4411 -21.4407 -21.4246  -6.3525  -6.3194  -6.1453  -5.6653
    -5.4519  -5.3824  -5.2339  -5.2038  -5.1649  -5.1058  -4.9366  -4.8437
    -3.7151  -3.6785  -3.5120  -3.4984  -3.4966  -3.4917  -3.4500  -3.4060
    -3.3694  -3.1443  -3.0900  -3.0214   5.5746   5.6298   5.9971   6.0158
     6.1335   6.2676   6.3588   6.5467   6.6391   6.9371   7.1897   7.5019
     7.5591   7.6053   7.8729   8.0801   8.0862   8.1828   8.2315   8.8293
     8.9303   8.9874   9.0414   9.2584   9.3017   9.3115   9.5538   9.6613
     9.7007   9.7856   9.9474   9.9937  10.5247  10.5296  10.6023  10.6862
    12.7765  12.8931  12.9033  13.0254  14.8416  14.8990  15.0671  15.0699
    15.5477  15.8100  15.9345  15.9632  16.6083  16.8188  16.8496  16.8676
    17.0809  17.4833  18.1063  18.2267  18.2961

     occupation numbers 
     1.0000   1.0000   1.0000   1.0000   1.0000   1.0000   1.0000   1.0000
     1.0000   1.0000   1.0000   1.0000   1.0000   1.0000   1.0000   1.0000
     1.0000   1.0000   1.0000   1.0000   1.0000   1.0000   1.0000   1.0000
     1.0000   1.0000   1.0000   1.0000   1.0000   1.0000   1.0000   1.0000
     1.0000   1.0000   1.0000   1.0000   1.0000   1.0000   1.0000   1.0000
     1.0000   1.0000   1.0000   1.0000   1.0000   1.0000   1.0000   1.0000
     1.0000   1.0000   1.0000   1.0000   1.0000   1.0000   1.0000   1.0000
     1.0000   1.0000   1.0000   1.0000   1.0000   1.0000   1.0000   1.0000
     1.0000   1.0000   1.0000   1.0000   1.0000   1.0000   1.0000   1.0000
     1.0000   1.0000   1.0000   1.0000   1.0000   1.0000   1.0000   1.0000
     1.0000   1.0000   1.0000   1.0000   0.0000   0.0000   0.0000   0.0000
     0.0000   0.0000   0.0000   0.0000   0.0000   0.0000   0.0000   0.0000
     0.0000   0.0000   0.0000   0.0000   0.0000

          k = 0.0000 0.2000 0.2909 (  9702 PWs)   bands (ev):

   -48.2352 -48.2343 -48.2328 -48.2321 -22.7018 -22.6885 -22.6609 -22.6510
   -22.5408 -22.5389 -22.5380 -22.5369 -22.4744 -22.4724 -22.4717 -22.4705
   -21.4609 -21.4498 -21.4357 -21.4296  -6.2510  -6.2394  -5.8672  -5.6291
    -5.4983  -5.4308  -5.4043  -5.3920  -5.1368  -5.1219  -5.0139  -4.9933
    -3.6865  -3.5748  -3.5073  -3.5021  -3.4848  -3.4786  -3.4432  -3.3261
    -3.2862  -3.2417  -3.1781  -3.1131   6.0026   6.0097   6.0810   6.1551
     6.4209   6.4253   6.4924   6.7815   6.8530   6.9409   7.1352   7.1930
     7.3595   7.4390   7.7137   7.7830   7.8256   7.9515   8.2478   8.3303
     8.5561   8.5673   9.1518   9.3438   9.4779   9.6369   9.6649   9.7627
     9.7644   9.8238   9.8386   9.9148  10.2249  10.2624  10.6211  10.6515
    12.8874  12.9636  13.5522  13.5670  14.3842  14.3869  15.1113  15.1489
    15.5135  15.5382  15.6353  15.7408  16.8488  16.8511  17.0931  17.3036
    17.6310  17.7446  17.8789  18.2456  18.3206

     occupation numbers 
     1.0000   1.0000   1.0000   1.0000   1.0000   1.0000   1.0000   1.0000
     1.0000   1.0000   1.0000   1.0000   1.0000   1.0000   1.0000   1.0000
     1.0000   1.0000   1.0000   1.0000   1.0000   1.0000   1.0000   1.0000
     1.0000   1.0000   1.0000   1.0000   1.0000   1.0000   1.0000   1.0000
     1.0000   1.0000   1.0000   1.0000   1.0000   1.0000   1.0000   1.0000
     1.0000   1.0000   1.0000   1.0000   1.0000   1.0000   1.0000   1.0000
     1.0000   1.0000   1.0000   1.0000   1.0000   1.0000   1.0000   1.0000
     1.0000   1.0000   1.0000   1.0000   1.0000   1.0000   1.0000   1.0000
     1.0000   1.0000   1.0000   1.0000   1.0000   1.0000   1.0000   1.0000
     1.0000   1.0000   1.0000   1.0000   1.0000   1.0000   1.0000   1.0000
     1.0000   1.0000   1.0000   1.0000   0.0767   0.0677   0.0000   0.0000
     0.0000   0.0000   0.0000   0.0000   0.0000   0.0000   0.0000   0.0000
     0.0000   0.0000   0.0000   0.0000   0.0000

          k = 0.0000 0.2000 0.4364 (  9702 PWs)   bands (ev):

   -48.2352 -48.2343 -48.2328 -48.2321 -22.7018 -22.6885 -22.6609 -22.6510
   -22.5408 -22.5389 -22.5380 -22.5369 -22.4744 -22.4724 -22.4717 -22.4705
   -21.4609 -21.4498 -21.4357 -21.4296  -6.2510  -6.2394  -5.8672  -5.6291
    -5.4983  -5.4308  -5.4043  -5.3920  -5.1368  -5.1219  -5.0139  -4.9933
    -3.6865  -3.5748  -3.5073  -3.5021  -3.4848  -3.4786  -3.4432  -3.3261
    -3.2862  -3.2417  -3.1781  -3.1131   6.0026   6.0097   6.0810   6.1551
     6.4209   6.4253   6.4924   6.7815   6.8530   6.9409   7.1352   7.1930
     7.3595   7.4390   7.7137   7.7830   7.8256   7.9515   8.2478   8.3303
     8.5561   8.5673   9.1518   9.3438   9.4779   9.6369   9.6649   9.7627
     9.7644   9.8238   9.8386   9.9148  10.2249  10.2624  10.6211  10.6515
    12.8874  12.9636  13.5522  13.5670  14.3842  14.3869  15.1113  15.1489
    15.5135  15.5382  15.6353  15.7408  16.8488  16.8511  17.0931  17.3036
    17.6310  17.7446  17.8789  18.2456  18.3206

     occupation numbers 
     1.0000   1.0000   1.0000   1.0000   1.0000   1.0000   1.0000   1.0000
     1.0000   1.0000   1.0000   1.0000   1.0000   1.0000   1.0000   1.0000
     1.0000   1.0000   1.0000   1.0000   1.0000   1.0000   1.0000   1.0000
     1.0000   1.0000   1.0000   1.0000   1.0000   1.0000   1.0000   1.0000
     1.0000   1.0000   1.0000   1.0000   1.0000   1.0000   1.0000   1.0000
     1.0000   1.0000   1.0000   1.0000   1.0000   1.0000   1.0000   1.0000
     1.0000   1.0000   1.0000   1.0000   1.0000   1.0000   1.0000   1.0000
     1.0000   1.0000   1.0000   1.0000   1.0000   1.0000   1.0000   1.0000
     1.0000   1.0000   1.0000   1.0000   1.0000   1.0000   1.0000   1.0000
     1.0000   1.0000   1.0000   1.0000   1.0000   1.0000   1.0000   1.0000
     1.0000   1.0000   1.0000   1.0000   0.0767   0.0677   0.0000   0.0000
     0.0000   0.0000   0.0000   0.0000   0.0000   0.0000   0.0000   0.0000
     0.0000   0.0000   0.0000   0.0000   0.0000

          k = 0.0000 0.2000 0.5818 (  9717 PWs)   bands (ev):

   -48.2358 -48.2339 -48.2333 -48.2316 -22.7344 -22.7185 -22.6273 -22.6202
   -22.5430 -22.5404 -22.5358 -22.5353 -22.4766 -22.4738 -22.4696 -22.4690
   -21.4701 -21.4411 -21.4407 -21.4246  -6.3525  -6.3194  -6.1453  -5.6653
    -5.4519  -5.3824  -5.2339  -5.2038  -5.1649  -5.1058  -4.9366  -4.8437
    -3.7151  -3.6785  -3.5120  -3.4984  -3.4966  -3.4917  -3.4500  -3.4060
    -3.3694  -3.1443  -3.0900  -3.0214   5.5746   5.6298   5.9971   6.0158
     6.1335   6.2676   6.3588   6.5467   6.6391   6.9371   7.1897   7.5019
     7.5591   7.6053   7.8729   8.0801   8.0862   8.1828   8.2315   8.8293
     8.9303   8.9874   9.0414   9.2584   9.3017   9.3115   9.5538   9.6613
     9.7007   9.7856   9.9474   9.9937  10.5247  10.5296  10.6023  10.6862
    12.7765  12.8931  12.9033  13.0254  14.8416  14.8990  15.0671  15.0699
    15.5477  15.8100  15.9345  15.9632  16.6083  16.8188  16.8496  16.8676
    17.0809  17.4833  18.1063  18.2267  18.2960

     occupation numbers 
     1.0000   1.0000   1.0000   1.0000   1.0000   1.0000   1.0000   1.0000
     1.0000   1.0000   1.0000   1.0000   1.0000   1.0000   1.0000   1.0000
     1.0000   1.0000   1.0000   1.0000   1.0000   1.0000   1.0000   1.0000
     1.0000   1.0000   1.0000   1.0000   1.0000   1.0000   1.0000   1.0000
     1.0000   1.0000   1.0000   1.0000   1.0000   1.0000   1.0000   1.0000
     1.0000   1.0000   1.0000   1.0000   1.0000   1.0000   1.0000   1.0000
     1.0000   1.0000   1.0000   1.0000   1.0000   1.0000   1.0000   1.0000
     1.0000   1.0000   1.0000   1.0000   1.0000   1.0000   1.0000   1.0000
     1.0000   1.0000   1.0000   1.0000   1.0000   1.0000   1.0000   1.0000
     1.0000   1.0000   1.0000   1.0000   1.0000   1.0000   1.0000   1.0000
     1.0000   1.0000   1.0000   1.0000   0.0000   0.0000   0.0000   0.0000
     0.0000   0.0000   0.0000   0.0000   0.0000   0.0000   0.0000   0.0000
     0.0000   0.0000   0.0000   0.0000   0.0000

          k = 0.0000 0.4000 0.0000 (  9724 PWs)   bands (ev):

   -48.2352 -48.2343 -48.2331 -48.2320 -22.7399 -22.7335 -22.6124 -22.6102
   -22.5279 -22.5206 -22.5150 -22.5143 -22.5028 -22.4951 -22.4899 -22.4891
   -21.4581 -21.4464 -21.4352 -21.4294  -6.4420  -6.3851  -5.9943  -5.4879
    -5.4798  -5.3957  -5.3221  -5.3006  -5.2007  -5.0950  -5.0925  -4.9717
    -3.6898  -3.5931  -3.4511  -3.4212  -3.3914  -3.3751  -3.3665  -3.2789
    -3.2716  -3.2386  -3.1416  -3.1412   5.3052   5.3143   6.3014   6.4903
     6.6255   6.6986   6.7200   6.7340   6.9872   7.0067   7.0395   7.3358
     7.4633   7.5206   7.5662   7.6492   8.0293   8.0979   8.2118   8.2415
     8.4631   8.7561   8.7798   9.0699   9.0822   9.2714   9.5095   9.6626
     9.6926   9.7951   9.8947   9.9524  10.0946  10.2284  10.2625  10.4172
    13.2442  13.4652  13.8071  14.0735  14.0923  14.2592  14.7598  15.0901
    15.4621  15.4896  15.7528  15.8117  17.2048  17.3036  17.5436  17.6432
    18.1172  18.1584  18.2536  18.3044  18.6721

     occupation numbers 
     1.0000   1.0000   1.0000   1.0000   1.0000   1.0000   1.0000   1.0000
     1.0000   1.0000   1.0000   1.0000   1.0000   1.0000   1.0000   1.0000
     1.0000   1.0000   1.0000   1.0000   1.0000   1.0000   1.0000   1.0000
     1.0000   1.0000   1.0000   1.0000   1.0000   1.0000   1.0000   1.0000
     1.0000   1.0000   1.0000   1.0000   1.0000   1.0000   1.0000   1.0000
     1.0000   1.0000   1.0000   1.0000   1.0000   1.0000   1.0000   1.0000
     1.0000   1.0000   1.0000   1.0000   1.0000   1.0000   1.0000   1.0000
     1.0000   1.0000   1.0000   1.0000   1.0000   1.0000   1.0000   1.0000
     1.0000   1.0000   1.0000   1.0000   1.0000   1.0000   1.0000   1.0000
     1.0000   1.0000   1.0000   1.0000   1.0000   1.0000   1.0000   1.0000
     1.0000   1.0000   1.0000   1.0000   1.0000   0.9744   0.0000   0.0000
     0.0000   0.0000   0.0000   0.0000   0.0000   0.0000   0.0000   0.0000
     0.0000   0.0000   0.0000   0.0000   0.0000

          k = 0.0000 0.4000 0.1455 (  9727 PWs)   bands (ev):

   -48.2350 -48.2341 -48.2333 -48.2323 -22.7280 -22.7220 -22.6249 -22.6222
   -22.5267 -22.5200 -22.5163 -22.5149 -22.5015 -22.4945 -22.4911 -22.4897
   -21.4558 -21.4448 -21.4373 -21.4310  -6.3562  -6.2896  -5.9833  -5.5293
    -5.4971  -5.3790  -5.2954  -5.2952  -5.2216  -5.1963  -5.1635  -5.0150
    -3.6367  -3.5714  -3.4871  -3.4771  -3.4736  -3.4086  -3.3384  -3.2749
    -3.2535  -3.2208  -3.1179  -3.1175   5.6115   5.6198   6.3497   6.5750
     6.6117   6.7001   6.7139   6.8175   7.0358   7.0620   7.0859   7.2545
     7.4285   7.5552   7.5618   7.6575   7.7218   7.8973   7.9952   8.0843
     8.3809   8.4407   8.7755   8.9572   9.3829   9.3899   9.5553   9.6661
     9.6736   9.7177   9.9391   9.9493  10.0717  10.1820  10.2634  10.4111
    13.4181  13.5923  13.8384  14.0654  14.1904  14.3454  14.7929  15.0593
    15.2217  15.2272  15.5476  15.5764  17.4067  17.6643  17.7186  18.1135
    18.1138  18.2650  18.2688  18.3039  18.6032

     occupation numbers 
     1.0000   1.0000   1.0000   1.0000   1.0000   1.0000   1.0000   1.0000
     1.0000   1.0000   1.0000   1.0000   1.0000   1.0000   1.0000   1.0000
     1.0000   1.0000   1.0000   1.0000   1.0000   1.0000   1.0000   1.0000
     1.0000   1.0000   1.0000   1.0000   1.0000   1.0000   1.0000   1.0000
     1.0000   1.0000   1.0000   1.0000   1.0000   1.0000   1.0000   1.0000
     1.0000   1.0000   1.0000   1.0000   1.0000   1.0000   1.0000   1.0000
     1.0000   1.0000   1.0000   1.0000   1.0000   1.0000   1.0000   1.0000
     1.0000   1.0000   1.0000   1.0000   1.0000   1.0000   1.0000   1.0000
     1.0000   1.0000   1.0000   1.0000   1.0000   1.0000   1.0000   1.0000
     1.0000   1.0000   1.0000   1.0000   1.0000   1.0000   1.0000   1.0000
     1.0000   1.0000   1.0000   1.0000   0.9991   0.3571   0.0000   0.0000
     0.0000   0.0000   0.0000   0.0000   0.0000   0.0000   0.0000   0.0000
     0.0000   0.0000   0.0000   0.0000   0.0000

          k = 0.0000 0.4000 0.2909 (  9733 PWs)   bands (ev):

   -48.2345 -48.2337 -48.2336 -48.2330 -22.6966 -22.6916 -22.6573 -22.6534
   -22.5235 -22.5195 -22.5184 -22.5165 -22.4982 -22.4942 -22.4930 -22.4911
   -21.4500 -21.4429 -21.4405 -21.4353  -6.1497  -6.0349  -5.9960  -5.7242
    -5.5148  -5.4122  -5.3336  -5.2814  -5.2737  -5.2516  -5.2204  -5.1151
    -3.5599  -3.5492  -3.5173  -3.5113  -3.4840  -3.4554  -3.4310  -3.3749
    -3.1576  -3.1465  -3.1088  -3.1086   6.3734   6.3925   6.4694   6.5599
     6.7039   6.7090   6.8308   7.0024   7.0350   7.0527   7.2183   7.2997
     7.3066   7.3758   7.4288   7.4393   7.4977   7.6952   7.7028   7.9190
     7.9420   7.9443   8.4044   8.4920   9.6920   9.7111   9.7149   9.7228
     9.7527   9.7942   9.9978   9.9995  10.0092  10.0192  10.2881  10.3620
    13.8645  13.9764  13.9927  13.9963  14.5432  14.6202  14.6204  14.6253
    14.8780  14.9744  15.0651  15.0778  17.8170  17.9837  18.1824  18.2750
    18.3022  18.3293  18.4220  18.5014  18.5190

     occupation numbers 
     1.0000   1.0000   1.0000   1.0000   1.0000   1.0000   1.0000   1.0000
     1.0000   1.0000   1.0000   1.0000   1.0000   1.0000   1.0000   1.0000
     1.0000   1.0000   1.0000   1.0000   1.0000   1.0000   1.0000   1.0000
     1.0000   1.0000   1.0000   1.0000   1.0000   1.0000   1.0000   1.0000
     1.0000   1.0000   1.0000   1.0000   1.0000   1.0000   1.0000   1.0000
     1.0000   1.0000   1.0000   1.0000   1.0000   1.0000   1.0000   1.0000
     1.0000   1.0000   1.0000   1.0000   1.0000   1.0000   1.0000   1.0000
     1.0000   1.0000   1.0000   1.0000   1.0000   1.0000   1.0000   1.0000
     1.0000   1.0000   1.0000   1.0000   1.0000   1.0000   1.0000   1.0000
     1.0000   1.0000   1.0000   1.0000   1.0000   1.0000   1.0000   1.0000
     1.0000   1.0000   1.0000   1.0000   0.0000   0.0000   0.0000   0.0000
     0.0000   0.0000   0.0000   0.0000   0.0000   0.0000   0.0000   0.0000
     0.0000   0.0000   0.0000   0.0000   0.0000

          k = 0.0000 0.4000 0.4364 (  9733 PWs)   bands (ev):

   -48.2345 -48.2337 -48.2336 -48.2330 -22.6966 -22.6916 -22.6573 -22.6534
   -22.5235 -22.5195 -22.5184 -22.5165 -22.4982 -22.4942 -22.4930 -22.4911
   -21.4500 -21.4429 -21.4405 -21.4353  -6.1497  -6.0349  -5.9960  -5.7242
    -5.5148  -5.4122  -5.3336  -5.2814  -5.2737  -5.2516  -5.2204  -5.1151
    -3.5599  -3.5492  -3.5173  -3.5113  -3.4840  -3.4554  -3.4310  -3.3749
    -3.1576  -3.1465  -3.1088  -3.1086   6.3734   6.3925   6.4694   6.5599
     6.7039   6.7090   6.8308   7.0024   7.0350   7.0527   7.2183   7.2997
     7.3066   7.3758   7.4288   7.4393   7.4977   7.6952   7.7028   7.9190
     7.9420   7.9443   8.4044   8.4920   9.6920   9.7111   9.7149   9.7228
     9.7527   9.7942   9.9978   9.9995  10.0092  10.0192  10.2881  10.3620
    13.8645  13.9764  13.9927  13.9963  14.5432  14.6202  14.6204  14.6253
    14.8780  14.9744  15.0651  15.0778  17.8170  17.9837  18.1824  18.2750
    18.3022  18.3293  18.4220  18.5014  18.5190

     occupation numbers 
     1.0000   1.0000   1.0000   1.0000   1.0000   1.0000   1.0000   1.0000
     1.0000   1.0000   1.0000   1.0000   1.0000   1.0000   1.0000   1.0000
     1.0000   1.0000   1.0000   1.0000   1.0000   1.0000   1.0000   1.0000
     1.0000   1.0000   1.0000   1.0000   1.0000   1.0000   1.0000   1.0000
     1.0000   1.0000   1.0000   1.0000   1.0000   1.0000   1.0000   1.0000
     1.0000   1.0000   1.0000   1.0000   1.0000   1.0000   1.0000   1.0000
     1.0000   1.0000   1.0000   1.0000   1.0000   1.0000   1.0000   1.0000
     1.0000   1.0000   1.0000   1.0000   1.0000   1.0000   1.0000   1.0000
     1.0000   1.0000   1.0000   1.0000   1.0000   1.0000   1.0000   1.0000
     1.0000   1.0000   1.0000   1.0000   1.0000   1.0000   1.0000   1.0000
     1.0000   1.0000   1.0000   1.0000   0.0000   0.0000   0.0000   0.0000
     0.0000   0.0000   0.0000   0.0000   0.0000   0.0000   0.0000   0.0000
     0.0000   0.0000   0.0000   0.0000   0.0000

          k = 0.0000 0.4000 0.5818 (  9727 PWs)   bands (ev):

   -48.2350 -48.2341 -48.2333 -48.2323 -22.7280 -22.7220 -22.6249 -22.6222
   -22.5267 -22.5200 -22.5163 -22.5149 -22.5015 -22.4945 -22.4911 -22.4897
   -21.4558 -21.4448 -21.4373 -21.4310  -6.3562  -6.2896  -5.9833  -5.5293
    -5.4971  -5.3790  -5.2954  -5.2952  -5.2216  -5.1963  -5.1635  -5.0150
    -3.6367  -3.5714  -3.4871  -3.4771  -3.4736  -3.4086  -3.3384  -3.2749
    -3.2535  -3.2208  -3.1179  -3.1175   5.6115   5.6198   6.3497   6.5750
     6.6117   6.7001   6.7139   6.8175   7.0358   7.0620   7.0859   7.2545
     7.4285   7.5552   7.5618   7.6575   7.7218   7.8973   7.9952   8.0843
     8.3809   8.4407   8.7755   8.9572   9.3829   9.3899   9.5553   9.6661
     9.6736   9.7177   9.9391   9.9493  10.0717  10.1820  10.2634  10.4111
    13.4181  13.5923  13.8384  14.0654  14.1904  14.3454  14.7929  15.0593
    15.2217  15.2272  15.5476  15.5764  17.4067  17.6643  17.7186  18.1135
    18.1138  18.2650  18.2688  18.3039  18.6034

     occupation numbers 
     1.0000   1.0000   1.0000   1.0000   1.0000   1.0000   1.0000   1.0000
     1.0000   1.0000   1.0000   1.0000   1.0000   1.0000   1.0000   1.0000
     1.0000   1.0000   1.0000   1.0000   1.0000   1.0000   1.0000   1.0000
     1.0000   1.0000   1.0000   1.0000   1.0000   1.0000   1.0000   1.0000
     1.0000   1.0000   1.0000   1.0000   1.0000   1.0000   1.0000   1.0000
     1.0000   1.0000   1.0000   1.0000   1.0000   1.0000   1.0000   1.0000
     1.0000   1.0000   1.0000   1.0000   1.0000   1.0000   1.0000   1.0000
     1.0000   1.0000   1.0000   1.0000   1.0000   1.0000   1.0000   1.0000
     1.0000   1.0000   1.0000   1.0000   1.0000   1.0000   1.0000   1.0000
     1.0000   1.0000   1.0000   1.0000   1.0000   1.0000   1.0000   1.0000
     1.0000   1.0000   1.0000   1.0000   0.9991   0.3571   0.0000   0.0000
     0.0000   0.0000   0.0000   0.0000   0.0000   0.0000   0.0000   0.0000
     0.0000   0.0000   0.0000   0.0000   0.0000

          k = 0.0000 0.6000 0.0000 (  9724 PWs)   bands (ev):

   -48.2352 -48.2343 -48.2331 -48.2320 -22.7399 -22.7335 -22.6124 -22.6102
   -22.5279 -22.5206 -22.5150 -22.5143 -22.5028 -22.4951 -22.4899 -22.4891
   -21.4581 -21.4464 -21.4352 -21.4294  -6.4420  -6.3851  -5.9943  -5.4879
    -5.4798  -5.3957  -5.3221  -5.3006  -5.2007  -5.0950  -5.0925  -4.9717
    -3.6898  -3.5931  -3.4511  -3.4212  -3.3914  -3.3751  -3.3665  -3.2789
    -3.2716  -3.2386  -3.1416  -3.1412   5.3052   5.3143   6.3014   6.4903
     6.6255   6.6986   6.7200   6.7340   6.9872   7.0067   7.0395   7.3358
     7.4633   7.5206   7.5662   7.6492   8.0293   8.0979   8.2118   8.2415
     8.4631   8.7561   8.7798   9.0699   9.0822   9.2714   9.5095   9.6626
     9.6926   9.7951   9.8947   9.9524  10.0946  10.2284  10.2625  10.4172
    13.2442  13.4652  13.8071  14.0735  14.0923  14.2592  14.7598  15.0901
    15.4621  15.4896  15.7528  15.8117  17.2048  17.3036  17.5436  17.6432
    18.1172  18.1584  18.2536  18.3044  18.6720

     occupation numbers 
     1.0000   1.0000   1.0000   1.0000   1.0000   1.0000   1.0000   1.0000
     1.0000   1.0000   1.0000   1.0000   1.0000   1.0000   1.0000   1.0000
     1.0000   1.0000   1.0000   1.0000   1.0000   1.0000   1.0000   1.0000
     1.0000   1.0000   1.0000   1.0000   1.0000   1.0000   1.0000   1.0000
     1.0000   1.0000   1.0000   1.0000   1.0000   1.0000   1.0000   1.0000
     1.0000   1.0000   1.0000   1.0000   1.0000   1.0000   1.0000   1.0000
     1.0000   1.0000   1.0000   1.0000   1.0000   1.0000   1.0000   1.0000
     1.0000   1.0000   1.0000   1.0000   1.0000   1.0000   1.0000   1.0000
     1.0000   1.0000   1.0000   1.0000   1.0000   1.0000   1.0000   1.0000
     1.0000   1.0000   1.0000   1.0000   1.0000   1.0000   1.0000   1.0000
     1.0000   1.0000   1.0000   1.0000   1.0000   0.9744   0.0000   0.0000
     0.0000   0.0000   0.0000   0.0000   0.0000   0.0000   0.0000   0.0000
     0.0000   0.0000   0.0000   0.0000   0.0000

          k = 0.0000 0.6000 0.1455 (  9727 PWs)   bands (ev):

   -48.2350 -48.2341 -48.2333 -48.2323 -22.7280 -22.7220 -22.6249 -22.6222
   -22.5267 -22.5200 -22.5163 -22.5149 -22.5015 -22.4945 -22.4911 -22.4897
   -21.4558 -21.4448 -21.4373 -21.4310  -6.3562  -6.2896  -5.9833  -5.5293
    -5.4971  -5.3790  -5.2954  -5.2952  -5.2216  -5.1963  -5.1635  -5.0150
    -3.6367  -3.5714  -3.4871  -3.4771  -3.4736  -3.4086  -3.3384  -3.2749
    -3.2535  -3.2208  -3.1179  -3.1175   5.6115   5.6198   6.3497   6.5750
     6.6117   6.7001   6.7139   6.8175   7.0358   7.0620   7.0859   7.2545
     7.4285   7.5552   7.5618   7.6575   7.7218   7.8973   7.9952   8.0843
     8.3809   8.4407   8.7755   8.9572   9.3829   9.3899   9.5553   9.6661
     9.6736   9.7177   9.9391   9.9493  10.0717  10.1820  10.2634  10.4111
    13.4181  13.5923  13.8384  14.0654  14.1904  14.3454  14.7929  15.0593
    15.2217  15.2272  15.5476  15.5764  17.4067  17.6643  17.7186  18.1135
    18.1138  18.2650  18.2688  18.3039  18.6032

     occupation numbers 
     1.0000   1.0000   1.0000   1.0000   1.0000   1.0000   1.0000   1.0000
     1.0000   1.0000   1.0000   1.0000   1.0000   1.0000   1.0000   1.0000
     1.0000   1.0000   1.0000   1.0000   1.0000   1.0000   1.0000   1.0000
     1.0000   1.0000   1.0000   1.0000   1.0000   1.0000   1.0000   1.0000
     1.0000   1.0000   1.0000   1.0000   1.0000   1.0000   1.0000   1.0000
     1.0000   1.0000   1.0000   1.0000   1.0000   1.0000   1.0000   1.0000
     1.0000   1.0000   1.0000   1.0000   1.0000   1.0000   1.0000   1.0000
     1.0000   1.0000   1.0000   1.0000   1.0000   1.0000   1.0000   1.0000
     1.0000   1.0000   1.0000   1.0000   1.0000   1.0000   1.0000   1.0000
     1.0000   1.0000   1.0000   1.0000   1.0000   1.0000   1.0000   1.0000
     1.0000   1.0000   1.0000   1.0000   0.9991   0.3571   0.0000   0.0000
     0.0000   0.0000   0.0000   0.0000   0.0000   0.0000   0.0000   0.0000
     0.0000   0.0000   0.0000   0.0000   0.0000

          k = 0.0000 0.6000 0.2909 (  9733 PWs)   bands (ev):

   -48.2345 -48.2337 -48.2336 -48.2330 -22.6966 -22.6916 -22.6573 -22.6534
   -22.5235 -22.5195 -22.5184 -22.5165 -22.4982 -22.4942 -22.4930 -22.4911
   -21.4500 -21.4429 -21.4405 -21.4353  -6.1497  -6.0349  -5.9960  -5.7242
    -5.5148  -5.4122  -5.3336  -5.2814  -5.2737  -5.2516  -5.2204  -5.1151
    -3.5599  -3.5492  -3.5173  -3.5113  -3.4840  -3.4554  -3.4310  -3.3749
    -3.1576  -3.1465  -3.1088  -3.1086   6.3734   6.3925   6.4694   6.5599
     6.7039   6.7090   6.8308   7.0024   7.0350   7.0527   7.2183   7.2997
     7.3066   7.3758   7.4288   7.4393   7.4977   7.6952   7.7028   7.9190
     7.9420   7.9443   8.4044   8.4920   9.6920   9.7111   9.7149   9.7228
     9.7527   9.7942   9.9978   9.9995  10.0092  10.0192  10.2881  10.3620
    13.8645  13.9764  13.9927  13.9963  14.5432  14.6202  14.6204  14.6253
    14.8780  14.9744  15.0651  15.0778  17.8170  17.9837  18.1824  18.2750
    18.3022  18.3293  18.4220  18.5014  18.5190

     occupation numbers 
     1.0000   1.0000   1.0000   1.0000   1.0000   1.0000   1.0000   1.0000
     1.0000   1.0000   1.0000   1.0000   1.0000   1.0000   1.0000   1.0000
     1.0000   1.0000   1.0000   1.0000   1.0000   1.0000   1.0000   1.0000
     1.0000   1.0000   1.0000   1.0000   1.0000   1.0000   1.0000   1.0000
     1.0000   1.0000   1.0000   1.0000   1.0000   1.0000   1.0000   1.0000
     1.0000   1.0000   1.0000   1.0000   1.0000   1.0000   1.0000   1.0000
     1.0000   1.0000   1.0000   1.0000   1.0000   1.0000   1.0000   1.0000
     1.0000   1.0000   1.0000   1.0000   1.0000   1.0000   1.0000   1.0000
     1.0000   1.0000   1.0000   1.0000   1.0000   1.0000   1.0000   1.0000
     1.0000   1.0000   1.0000   1.0000   1.0000   1.0000   1.0000   1.0000
     1.0000   1.0000   1.0000   1.0000   0.0000   0.0000   0.0000   0.0000
     0.0000   0.0000   0.0000   0.0000   0.0000   0.0000   0.0000   0.0000
     0.0000   0.0000   0.0000   0.0000   0.0000

          k = 0.0000 0.6000 0.4364 (  9733 PWs)   bands (ev):

   -48.2345 -48.2337 -48.2336 -48.2330 -22.6966 -22.6916 -22.6573 -22.6534
   -22.5235 -22.5195 -22.5184 -22.5165 -22.4982 -22.4942 -22.4930 -22.4911
   -21.4500 -21.4429 -21.4405 -21.4353  -6.1497  -6.0349  -5.9960  -5.7242
    -5.5148  -5.4122  -5.3336  -5.2814  -5.2737  -5.2516  -5.2204  -5.1151
    -3.5599  -3.5492  -3.5173  -3.5113  -3.4840  -3.4554  -3.4310  -3.3749
    -3.1576  -3.1465  -3.1088  -3.1086   6.3734   6.3925   6.4694   6.5599
     6.7039   6.7090   6.8308   7.0024   7.0350   7.0527   7.2183   7.2997
     7.3066   7.3758   7.4288   7.4393   7.4977   7.6952   7.7028   7.9190
     7.9420   7.9443   8.4044   8.4920   9.6920   9.7111   9.7149   9.7228
     9.7527   9.7942   9.9978   9.9995  10.0092  10.0192  10.2881  10.3620
    13.8645  13.9764  13.9927  13.9963  14.5432  14.6202  14.6204  14.6253
    14.8780  14.9744  15.0651  15.0778  17.8170  17.9837  18.1824  18.2750
    18.3022  18.3293  18.4220  18.5014  18.5190

     occupation numbers 
     1.0000   1.0000   1.0000   1.0000   1.0000   1.0000   1.0000   1.0000
     1.0000   1.0000   1.0000   1.0000   1.0000   1.0000   1.0000   1.0000
     1.0000   1.0000   1.0000   1.0000   1.0000   1.0000   1.0000   1.0000
     1.0000   1.0000   1.0000   1.0000   1.0000   1.0000   1.0000   1.0000
     1.0000   1.0000   1.0000   1.0000   1.0000   1.0000   1.0000   1.0000
     1.0000   1.0000   1.0000   1.0000   1.0000   1.0000   1.0000   1.0000
     1.0000   1.0000   1.0000   1.0000   1.0000   1.0000   1.0000   1.0000
     1.0000   1.0000   1.0000   1.0000   1.0000   1.0000   1.0000   1.0000
     1.0000   1.0000   1.0000   1.0000   1.0000   1.0000   1.0000   1.0000
     1.0000   1.0000   1.0000   1.0000   1.0000   1.0000   1.0000   1.0000
     1.0000   1.0000   1.0000   1.0000   0.0000   0.0000   0.0000   0.0000
     0.0000   0.0000   0.0000   0.0000   0.0000   0.0000   0.0000   0.0000
     0.0000   0.0000   0.0000   0.0000   0.0000

          k = 0.0000 0.6000 0.5818 (  9727 PWs)   bands (ev):

   -48.2350 -48.2341 -48.2333 -48.2323 -22.7280 -22.7220 -22.6249 -22.6222
   -22.5267 -22.5200 -22.5163 -22.5149 -22.5015 -22.4945 -22.4911 -22.4897
   -21.4558 -21.4448 -21.4373 -21.4310  -6.3562  -6.2896  -5.9833  -5.5293
    -5.4971  -5.3790  -5.2954  -5.2952  -5.2216  -5.1963  -5.1635  -5.0150
    -3.6367  -3.5714  -3.4871  -3.4771  -3.4736  -3.4086  -3.3384  -3.2749
    -3.2535  -3.2208  -3.1179  -3.1175   5.6115   5.6198   6.3497   6.5750
     6.6117   6.7001   6.7139   6.8175   7.0358   7.0620   7.0859   7.2545
     7.4285   7.5552   7.5618   7.6575   7.7218   7.8973   7.9952   8.0843
     8.3809   8.4407   8.7755   8.9572   9.3829   9.3899   9.5553   9.6661
     9.6736   9.7177   9.9391   9.9493  10.0717  10.1820  10.2634  10.4111
    13.4181  13.5923  13.8384  14.0654  14.1904  14.3454  14.7929  15.0593
    15.2217  15.2272  15.5476  15.5764  17.4067  17.6643  17.7186  18.1135
    18.1138  18.2650  18.2688  18.3039  18.6032

     occupation numbers 
     1.0000   1.0000   1.0000   1.0000   1.0000   1.0000   1.0000   1.0000
     1.0000   1.0000   1.0000   1.0000   1.0000   1.0000   1.0000   1.0000
     1.0000   1.0000   1.0000   1.0000   1.0000   1.0000   1.0000   1.0000
     1.0000   1.0000   1.0000   1.0000   1.0000   1.0000   1.0000   1.0000
     1.0000   1.0000   1.0000   1.0000   1.0000   1.0000   1.0000   1.0000
     1.0000   1.0000   1.0000   1.0000   1.0000   1.0000   1.0000   1.0000
     1.0000   1.0000   1.0000   1.0000   1.0000   1.0000   1.0000   1.0000
     1.0000   1.0000   1.0000   1.0000   1.0000   1.0000   1.0000   1.0000
     1.0000   1.0000   1.0000   1.0000   1.0000   1.0000   1.0000   1.0000
     1.0000   1.0000   1.0000   1.0000   1.0000   1.0000   1.0000   1.0000
     1.0000   1.0000   1.0000   1.0000   0.9991   0.3571   0.0000   0.0000
     0.0000   0.0000   0.0000   0.0000   0.0000   0.0000   0.0000   0.0000
     0.0000   0.0000   0.0000   0.0000   0.0000

          k = 0.0000 0.8000 0.0000 (  9718 PWs)   bands (ev):

   -48.2359 -48.2337 -48.2337 -48.2312 -22.7466 -22.7299 -22.6143 -22.6085
   -22.5439 -22.5411 -22.5348 -22.5346 -22.4773 -22.4744 -22.4688 -22.4685
   -21.4737 -21.4426 -21.4378 -21.4227  -6.4206  -6.3504  -6.2474  -5.6463
    -5.4598  -5.3739  -5.2678  -5.2335  -4.9826  -4.9742  -4.9666  -4.7720
    -3.7670  -3.6521  -3.6290  -3.5139  -3.4970  -3.4724  -3.4453  -3.3940
    -3.3894  -3.0932  -3.0647  -2.9886   5.2868   5.3242   5.9950   6.0183
     6.1062   6.2219   6.3957   6.4205   6.5665   6.9951   7.0996   7.4226
     7.8224   7.8578   7.9814   8.0258   8.1242   8.2036   8.3779   8.8888
     9.0022   9.0168   9.0682   9.2324   9.3466   9.3725   9.5176   9.5256
     9.7669   9.8160  10.0282  10.1324  10.5962  10.6106  10.6265  10.7072
    12.5375  12.6467  12.8238  13.0494  14.7506  14.8148  15.3343  15.3451
    15.5134  15.8443  16.1193  16.1754  16.4266  16.6568  16.7439  16.8472
    16.8496  17.1933  17.8448  18.0609  18.0784

     occupation numbers 
     1.0000   1.0000   1.0000   1.0000   1.0000   1.0000   1.0000   1.0000
     1.0000   1.0000   1.0000   1.0000   1.0000   1.0000   1.0000   1.0000
     1.0000   1.0000   1.0000   1.0000   1.0000   1.0000   1.0000   1.0000
     1.0000   1.0000   1.0000   1.0000   1.0000   1.0000   1.0000   1.0000
     1.0000   1.0000   1.0000   1.0000   1.0000   1.0000   1.0000   1.0000
     1.0000   1.0000   1.0000   1.0000   1.0000   1.0000   1.0000   1.0000
     1.0000   1.0000   1.0000   1.0000   1.0000   1.0000   1.0000   1.0000
     1.0000   1.0000   1.0000   1.0000   1.0000   1.0000   1.0000   1.0000
     1.0000   1.0000   1.0000   1.0000   1.0000   1.0000   1.0000   1.0000
     1.0000   1.0000   1.0000   1.0000   1.0000   1.0000   1.0000   1.0000
     1.0000   1.0000   1.0000   1.0000   0.0000   0.0000   0.0000   0.0000
     0.0000   0.0000   0.0000   0.0000   0.0000   0.0000   0.0000   0.0000
     0.0000   0.0000   0.0000   0.0000   0.0000

          k = 0.0000 0.8000 0.1455 (  9717 PWs)   bands (ev):

   -48.2358 -48.2339 -48.2333 -48.2316 -22.7344 -22.7185 -22.6273 -22.6202
   -22.5430 -22.5404 -22.5358 -22.5353 -22.4766 -22.4738 -22.4696 -22.4690
   -21.4701 -21.4411 -21.4407 -21.4246  -6.3525  -6.3194  -6.1453  -5.6653
[...]
    17.8135  18.3043  18.3845  18.4454  18.6074

     occupation numbers 
     1.0000   1.0000   1.0000   1.0000   1.0000   1.0000   1.0000   1.0000
     1.0000   1.0000   1.0000   1.0000   1.0000   1.0000   1.0000   1.0000
     1.0000   1.0000   1.0000   1.0000   1.0000   1.0000   1.0000   1.0000
     1.0000   1.0000   1.0000   1.0000   1.0000   1.0000   1.0000   1.0000
     1.0000   1.0000   1.0000   1.0000   1.0000   1.0000   1.0000   1.0000
     1.0000   1.0000   1.0000   1.0000   1.0000   1.0000   1.0000   1.0000
     1.0000   1.0000   1.0000   1.0000   1.0000   1.0000   1.0000   1.0000
     1.0000   1.0000   1.0000   1.0000   1.0000   1.0000   1.0000   1.0000
     1.0000   1.0000   1.0000   1.0000   1.0000   1.0000   1.0000   1.0000
     1.0000   1.0000   1.0000   1.0000   1.0000   1.0000   1.0000   1.0000
     1.0000   1.0000   0.9991   0.9979   0.4179   0.0000   0.0000   0.0000
     0.0000   0.0000   0.0000   0.0000   0.0000   0.0000   0.0000   0.0000
     0.0000   0.0000   0.0000   0.0000   0.0000

          k = 0.8000 0.6000 0.2909 (  9738 PWs)   bands (ev):

   -48.2344 -48.2338 -48.2337 -48.2330 -22.6955 -22.6913 -22.6565 -22.6534
   -22.5472 -22.5425 -22.5270 -22.5223 -22.4914 -22.4894 -22.4706 -22.4688
   -21.4473 -21.4419 -21.4397 -21.4357  -6.2415  -6.1514  -6.0367  -5.8430
    -5.5325  -5.4283  -5.3861  -5.2823  -5.2098  -5.1938  -5.0705  -5.0509
    -3.5933  -3.5724  -3.5080  -3.4979  -3.3616  -3.3496  -3.3455  -3.2786
    -3.1605  -3.1484  -3.1266  -3.1238   6.0366   6.0711   6.3335   6.3670
     6.5064   6.5861   6.6787   6.7517   6.9694   7.0845   7.1645   7.3238
     7.3482   7.4094   7.5057   7.5114   7.6042   7.7504   7.8880   8.0373
     8.0852   8.3315   8.9181   8.9821   9.4412   9.5442   9.5824   9.6168
     9.6178   9.7326   9.7505   9.9024   9.9249  10.0414  10.1923  10.3612
    13.6375  14.0987  14.2595  14.2668  14.4361  14.4945  14.7529  14.9048
    15.0000  15.0106  15.0844  15.3654  17.4720  17.6532  17.9787  18.1892
    18.4506  18.5011  18.5623  18.6253  18.6833

     occupation numbers 
     1.0000   1.0000   1.0000   1.0000   1.0000   1.0000   1.0000   1.0000
     1.0000   1.0000   1.0000   1.0000   1.0000   1.0000   1.0000   1.0000
     1.0000   1.0000   1.0000   1.0000   1.0000   1.0000   1.0000   1.0000
     1.0000   1.0000   1.0000   1.0000   1.0000   1.0000   1.0000   1.0000
     1.0000   1.0000   1.0000   1.0000   1.0000   1.0000   1.0000   1.0000
     1.0000   1.0000   1.0000   1.0000   1.0000   1.0000   1.0000   1.0000
     1.0000   1.0000   1.0000   1.0000   1.0000   1.0000   1.0000   1.0000
     1.0000   1.0000   1.0000   1.0000   1.0000   1.0000   1.0000   1.0000
     1.0000   1.0000   1.0000   1.0000   1.0000   1.0000   1.0000   1.0000
     1.0000   1.0000   1.0000   1.0000   1.0000   1.0000   1.0000   1.0000
     1.0000   1.0000   0.9739   0.9632   0.0065   0.0004   0.0000   0.0000
     0.0000   0.0000   0.0000   0.0000   0.0000   0.0000   0.0000   0.0000
     0.0000   0.0000   0.0000   0.0000   0.0000

          k = 0.8000 0.6000 0.4364 (  9738 PWs)   bands (ev):

   -48.2344 -48.2338 -48.2337 -48.2330 -22.6955 -22.6913 -22.6565 -22.6534
   -22.5472 -22.5425 -22.5270 -22.5223 -22.4914 -22.4894 -22.4706 -22.4688
   -21.4473 -21.4419 -21.4397 -21.4357  -6.2415  -6.1514  -6.0367  -5.8430
    -5.5325  -5.4283  -5.3861  -5.2823  -5.2098  -5.1938  -5.0705  -5.0509
    -3.5933  -3.5724  -3.5080  -3.4979  -3.3616  -3.3496  -3.3455  -3.2786
    -3.1605  -3.1484  -3.1266  -3.1238   6.0366   6.0711   6.3335   6.3670
     6.5064   6.5861   6.6787   6.7517   6.9694   7.0845   7.1645   7.3238
     7.3482   7.4094   7.5057   7.5114   7.6042   7.7504   7.8880   8.0373
     8.0852   8.3315   8.9181   8.9821   9.4412   9.5442   9.5824   9.6168
     9.6178   9.7326   9.7505   9.9024   9.9249  10.0414  10.1923  10.3612
    13.6375  14.0987  14.2595  14.2668  14.4361  14.4945  14.7529  14.9048
    15.0000  15.0106  15.0844  15.3654  17.4720  17.6532  17.9787  18.1892
    18.4506  18.5011  18.5623  18.6253  18.6834

     occupation numbers 
     1.0000   1.0000   1.0000   1.0000   1.0000   1.0000   1.0000   1.0000
     1.0000   1.0000   1.0000   1.0000   1.0000   1.0000   1.0000   1.0000
     1.0000   1.0000   1.0000   1.0000   1.0000   1.0000   1.0000   1.0000
     1.0000   1.0000   1.0000   1.0000   1.0000   1.0000   1.0000   1.0000
     1.0000   1.0000   1.0000   1.0000   1.0000   1.0000   1.0000   1.0000
     1.0000   1.0000   1.0000   1.0000   1.0000   1.0000   1.0000   1.0000
     1.0000   1.0000   1.0000   1.0000   1.0000   1.0000   1.0000   1.0000
     1.0000   1.0000   1.0000   1.0000   1.0000   1.0000   1.0000   1.0000
     1.0000   1.0000   1.0000   1.0000   1.0000   1.0000   1.0000   1.0000
     1.0000   1.0000   1.0000   1.0000   1.0000   1.0000   1.0000   1.0000
     1.0000   1.0000   0.9739   0.9632   0.0065   0.0004   0.0000   0.0000
     0.0000   0.0000   0.0000   0.0000   0.0000   0.0000   0.0000   0.0000
     0.0000   0.0000   0.0000   0.0000   0.0000

          k = 0.8000 0.6000 0.5818 (  9739 PWs)   bands (ev):

   -48.2350 -48.2341 -48.2333 -48.2325 -22.7266 -22.7216 -22.6246 -22.6223
   -22.5510 -22.5387 -22.5308 -22.5185 -22.4929 -22.4879 -22.4722 -22.4673
   -21.4519 -21.4430 -21.4375 -21.4325  -6.4502  -6.3951  -5.9548  -5.5951
    -5.5886  -5.4724  -5.2805  -5.2122  -5.1827  -5.1437  -5.0628  -5.0279
    -3.5858  -3.5012  -3.5002  -3.4965  -3.3949  -3.3722  -3.2994  -3.2719
    -3.2222  -3.1611  -3.1130  -3.0922   5.5895   5.6124   6.0757   6.0795
     6.2044   6.2326   6.7348   6.8431   6.9724   6.9980   7.3219   7.3452
     7.5456   7.6416   7.6662   7.7905   7.9555   8.0257   8.0347   8.1720
     8.2967   8.9273   8.9669   9.1688   9.2492   9.3585   9.5038   9.5115
     9.5392   9.6206   9.7691   9.8186   9.9298   9.9488  10.2865  10.5729
    12.9582  13.6012  14.1898  14.2074  14.3402  14.8128  14.9429  15.1269
    15.1372  15.3387  15.4124  15.7837  17.0698  17.5883  17.7239  17.7904
    17.8135  18.3043  18.3845  18.4454  18.6074

     occupation numbers 
     1.0000   1.0000   1.0000   1.0000   1.0000   1.0000   1.0000   1.0000
     1.0000   1.0000   1.0000   1.0000   1.0000   1.0000   1.0000   1.0000
     1.0000   1.0000   1.0000   1.0000   1.0000   1.0000   1.0000   1.0000
     1.0000   1.0000   1.0000   1.0000   1.0000   1.0000   1.0000   1.0000
     1.0000   1.0000   1.0000   1.0000   1.0000   1.0000   1.0000   1.0000
     1.0000   1.0000   1.0000   1.0000   1.0000   1.0000   1.0000   1.0000
     1.0000   1.0000   1.0000   1.0000   1.0000   1.0000   1.0000   1.0000
     1.0000   1.0000   1.0000   1.0000   1.0000   1.0000   1.0000   1.0000
     1.0000   1.0000   1.0000   1.0000   1.0000   1.0000   1.0000   1.0000
     1.0000   1.0000   1.0000   1.0000   1.0000   1.0000   1.0000   1.0000
     1.0000   1.0000   0.9991   0.9979   0.4179   0.0000   0.0000   0.0000
     0.0000   0.0000   0.0000   0.0000   0.0000   0.0000   0.0000   0.0000
     0.0000   0.0000   0.0000   0.0000   0.0000

          k = 0.8000 0.8000 0.0000 (  9713 PWs)   bands (ev):

   -48.2358 -48.2338 -48.2334 -48.2316 -22.7440 -22.7306 -22.6137 -22.6090
   -22.5555 -22.5440 -22.5194 -22.5131 -22.5022 -22.4908 -22.4651 -22.4594
   -21.4671 -21.4421 -21.4376 -21.4254  -6.4741  -6.3415  -6.2442  -5.6542
    -5.3807  -5.3278  -5.3269  -5.0958  -5.0744  -5.0601  -5.0573  -4.9393
    -3.6728  -3.5489  -3.5210  -3.5061  -3.4667  -3.4629  -3.4033  -3.3674
    -3.3243  -3.1656  -3.0538  -3.0197   5.2817   5.3190   5.8171   5.8954
     6.2176   6.3771   6.6011   6.7164   6.7754   6.9983   7.0826   7.5341
     7.5685   7.6496   7.8956   7.9563   8.0712   8.1725   8.3439   8.8088
     8.8613   8.9932   9.0144   9.1124   9.1255   9.3501   9.3889   9.4102
     9.6640   9.7720  10.1349  10.1378  10.3438  10.3913  10.3982  10.7634
    12.3037  13.3205  13.3341  13.4917  14.1953  15.0033  15.3294  15.3774
    15.4122  15.6801  15.8705  16.2199  16.3746  16.7373  16.9266  17.0146
    17.5092  17.7610  17.8291  18.0265  18.4531

     occupation numbers 
     1.0000   1.0000   1.0000   1.0000   1.0000   1.0000   1.0000   1.0000
     1.0000   1.0000   1.0000   1.0000   1.0000   1.0000   1.0000   1.0000
     1.0000   1.0000   1.0000   1.0000   1.0000   1.0000   1.0000   1.0000
     1.0000   1.0000   1.0000   1.0000   1.0000   1.0000   1.0000   1.0000
     1.0000   1.0000   1.0000   1.0000   1.0000   1.0000   1.0000   1.0000
     1.0000   1.0000   1.0000   1.0000   1.0000   1.0000   1.0000   1.0000
     1.0000   1.0000   1.0000   1.0000   1.0000   1.0000   1.0000   1.0000
     1.0000   1.0000   1.0000   1.0000   1.0000   1.0000   1.0000   1.0000
     1.0000   1.0000   1.0000   1.0000   1.0000   1.0000   1.0000   1.0000
     1.0000   1.0000   1.0000   1.0000   1.0000   1.0000   1.0000   1.0000
     1.0000   1.0000   1.0000   1.0000   0.9989   0.0000   0.0000   0.0000
     0.0000   0.0000   0.0000   0.0000   0.0000   0.0000   0.0000   0.0000
     0.0000   0.0000   0.0000   0.0000   0.0000

          k = 0.8000 0.8000 0.1455 (  9731 PWs)   bands (ev):

   -48.2355 -48.2338 -48.2336 -48.2318 -22.7320 -22.7192 -22.6265 -22.6208
   -22.5544 -22.5451 -22.5188 -22.5137 -22.5010 -22.4919 -22.4645 -22.4600
   -21.4641 -21.4405 -21.4403 -21.4270  -6.4006  -6.2436  -6.2227  -5.6530
    -5.3435  -5.3426  -5.3404  -5.2952  -5.1628  -5.0785  -5.0046  -4.9498
    -3.7069  -3.5155  -3.5092  -3.4725  -3.4686  -3.4487  -3.4191  -3.3795
    -3.3004  -3.1578  -3.1012  -3.0480   5.5523   5.6243   5.8176   5.9338
     6.2853   6.4243   6.7072   6.7496   6.7757   7.0421   7.0456   7.4871
     7.5576   7.6349   7.6690   7.7323   8.0558   8.1262   8.1295   8.6048
     8.8552   8.8733   8.8952   9.2048   9.3469   9.3522   9.4129   9.5717
     9.6790   9.8058   9.8672  10.0084  10.2675  10.3678  10.4022  10.6855
    12.6615  13.3549  13.4478  13.4720  14.3170  15.0613  15.0701  15.1530
    15.4081  15.6514  15.6544  16.0287  16.5849  16.9057  17.0025  17.1064
    17.7801  17.9424  18.2044  18.2211  18.5009

     occupation numbers 
     1.0000   1.0000   1.0000   1.0000   1.0000   1.0000   1.0000   1.0000
     1.0000   1.0000   1.0000   1.0000   1.0000   1.0000   1.0000   1.0000
     1.0000   1.0000   1.0000   1.0000   1.0000   1.0000   1.0000   1.0000
     1.0000   1.0000   1.0000   1.0000   1.0000   1.0000   1.0000   1.0000
     1.0000   1.0000   1.0000   1.0000   1.0000   1.0000   1.0000   1.0000
     1.0000   1.0000   1.0000   1.0000   1.0000   1.0000   1.0000   1.0000
     1.0000   1.0000   1.0000   1.0000   1.0000   1.0000   1.0000   1.0000
     1.0000   1.0000   1.0000   1.0000   1.0000   1.0000   1.0000   1.0000
     1.0000   1.0000   1.0000   1.0000   1.0000   1.0000   1.0000   1.0000
     1.0000   1.0000   1.0000   1.0000   1.0000   1.0000   1.0000   1.0000
     1.0000   1.0000   1.0000   1.0000   0.6915   0.0000   0.0000   0.0000
     0.0000   0.0000   0.0000   0.0000   0.0000   0.0000   0.0000   0.0000
     0.0000   0.0000   0.0000   0.0000   0.0000

          k = 0.8000 0.8000 0.2909 (  9719 PWs)   bands (ev):

   -48.2349 -48.2342 -48.2330 -48.2324 -22.6999 -22.6892 -22.6596 -22.6515
   -22.5515 -22.5480 -22.5173 -22.5153 -22.4981 -22.4947 -22.4632 -22.4614
   -21.4566 -21.4475 -21.4364 -21.4312  -6.2492  -6.1904  -5.9785  -5.6271
    -5.6135  -5.4390  -5.3569  -5.3339  -5.2388  -5.0978  -5.0342  -4.9838
    -3.6953  -3.6010  -3.5011  -3.4832  -3.4221  -3.4015  -3.3871  -3.2848
    -3.2277  -3.2241  -3.1885  -3.1248   5.8006   5.8171   6.4128   6.4528
     6.4604   6.5141   6.7668   6.8177   6.9725   7.0073   7.1204   7.2359
     7.2620   7.2884   7.4671   7.7496   7.8042   7.9203   7.9935   8.0303
     8.3051   8.5861   9.0036   9.2094   9.4703   9.5383   9.7075   9.7293
     9.8045   9.8331   9.8545   9.8690  10.0463  10.2356  10.4227  10.5048
    13.3090  13.4200  13.5502  13.8763  14.3729  14.5347  14.6686  15.1706
    15.2777  15.4882  15.5661  15.6443  16.8341  16.9536  17.3796  17.5545
    18.0080  18.1262  18.1556  18.5569  18.6633

     occupation numbers 
     1.0000   1.0000   1.0000   1.0000   1.0000   1.0000   1.0000   1.0000
     1.0000   1.0000   1.0000   1.0000   1.0000   1.0000   1.0000   1.0000
     1.0000   1.0000   1.0000   1.0000   1.0000   1.0000   1.0000   1.0000
     1.0000   1.0000   1.0000   1.0000   1.0000   1.0000   1.0000   1.0000
     1.0000   1.0000   1.0000   1.0000   1.0000   1.0000   1.0000   1.0000
     1.0000   1.0000   1.0000   1.0000   1.0000   1.0000   1.0000   1.0000
     1.0000   1.0000   1.0000   1.0000   1.0000   1.0000   1.0000   1.0000
     1.0000   1.0000   1.0000   1.0000   1.0000   1.0000   1.0000   1.0000
     1.0000   1.0000   1.0000   1.0000   1.0000   1.0000   1.0000   1.0000
     1.0000   1.0000   1.0000   1.0000   1.0000   1.0000   1.0000   1.0000
     1.0000   1.0000   1.0000   1.0000   0.1264   0.0001   0.0000   0.0000
     0.0000   0.0000   0.0000   0.0000   0.0000   0.0000   0.0000   0.0000
     0.0000   0.0000   0.0000   0.0000   0.0000

          k = 0.8000 0.8000 0.4364 (  9719 PWs)   bands (ev):

   -48.2349 -48.2342 -48.2330 -48.2324 -22.6999 -22.6892 -22.6596 -22.6515
   -22.5515 -22.5480 -22.5173 -22.5153 -22.4981 -22.4947 -22.4632 -22.4614
   -21.4566 -21.4475 -21.4364 -21.4312  -6.2492  -6.1904  -5.9785  -5.6271
    -5.6135  -5.4390  -5.3569  -5.3339  -5.2388  -5.0978  -5.0342  -4.9838
    -3.6953  -3.6010  -3.5011  -3.4832  -3.4221  -3.4015  -3.3871  -3.2848
    -3.2277  -3.2241  -3.1885  -3.1248   5.8006   5.8171   6.4128   6.4528
     6.4604   6.5141   6.7668   6.8177   6.9725   7.0073   7.1204   7.2359
     7.2620   7.2884   7.4671   7.7496   7.8042   7.9203   7.9935   8.0303
     8.3051   8.5861   9.0036   9.2094   9.4703   9.5383   9.7075   9.7293
     9.8045   9.8331   9.8545   9.8690  10.0463  10.2356  10.4227  10.5048
    13.3090  13.4200  13.5502  13.8763  14.3729  14.5347  14.6686  15.1706
    15.2777  15.4882  15.5661  15.6443  16.8341  16.9536  17.3796  17.5545
    18.0080  18.1262  18.1556  18.5569  18.6633

     occupation numbers 
     1.0000   1.0000   1.0000   1.0000   1.0000   1.0000   1.0000   1.0000
     1.0000   1.0000   1.0000   1.0000   1.0000   1.0000   1.0000   1.0000
     1.0000   1.0000   1.0000   1.0000   1.0000   1.0000   1.0000   1.0000
     1.0000   1.0000   1.0000   1.0000   1.0000   1.0000   1.0000   1.0000
     1.0000   1.0000   1.0000   1.0000   1.0000   1.0000   1.0000   1.0000
     1.0000   1.0000   1.0000   1.0000   1.0000   1.0000   1.0000   1.0000
     1.0000   1.0000   1.0000   1.0000   1.0000   1.0000   1.0000   1.0000
     1.0000   1.0000   1.0000   1.0000   1.0000   1.0000   1.0000   1.0000
     1.0000   1.0000   1.0000   1.0000   1.0000   1.0000   1.0000   1.0000
     1.0000   1.0000   1.0000   1.0000   1.0000   1.0000   1.0000   1.0000
     1.0000   1.0000   1.0000   1.0000   0.1264   0.0001   0.0000   0.0000
     0.0000   0.0000   0.0000   0.0000   0.0000   0.0000   0.0000   0.0000
     0.0000   0.0000   0.0000   0.0000   0.0000

          k = 0.8000 0.8000 0.5818 (  9731 PWs)   bands (ev):

   -48.2355 -48.2338 -48.2336 -48.2318 -22.7320 -22.7192 -22.6265 -22.6208
   -22.5544 -22.5451 -22.5188 -22.5137 -22.5010 -22.4919 -22.4645 -22.4600
   -21.4641 -21.4405 -21.4403 -21.4270  -6.4006  -6.2436  -6.2227  -5.6530
    -5.3435  -5.3426  -5.3404  -5.2952  -5.1628  -5.0785  -5.0046  -4.9498
    -3.7069  -3.5155  -3.5092  -3.4725  -3.4686  -3.4487  -3.4191  -3.3795
    -3.3004  -3.1578  -3.1012  -3.0480   5.5523   5.6243   5.8176   5.9338
     6.2853   6.4243   6.7072   6.7496   6.7757   7.0421   7.0456   7.4871
     7.5576   7.6349   7.6690   7.7323   8.0558   8.1262   8.1295   8.6048
     8.8552   8.8733   8.8952   9.2048   9.3469   9.3522   9.4129   9.5717
     9.6790   9.8058   9.8672  10.0084  10.2675  10.3678  10.4022  10.6855
    12.6615  13.3549  13.4478  13.4720  14.3170  15.0613  15.0701  15.1530
    15.4081  15.6514  15.6544  16.0287  16.5849  16.9057  17.0025  17.1064
    17.7801  17.9424  18.2044  18.2211  18.5009

     occupation numbers 
     1.0000   1.0000   1.0000   1.0000   1.0000   1.0000   1.0000   1.0000
     1.0000   1.0000   1.0000   1.0000   1.0000   1.0000   1.0000   1.0000
     1.0000   1.0000   1.0000   1.0000   1.0000   1.0000   1.0000   1.0000
     1.0000   1.0000   1.0000   1.0000   1.0000   1.0000   1.0000   1.0000
     1.0000   1.0000   1.0000   1.0000   1.0000   1.0000   1.0000   1.0000
     1.0000   1.0000   1.0000   1.0000   1.0000   1.0000   1.0000   1.0000
     1.0000   1.0000   1.0000   1.0000   1.0000   1.0000   1.0000   1.0000
     1.0000   1.0000   1.0000   1.0000   1.0000   1.0000   1.0000   1.0000
     1.0000   1.0000   1.0000   1.0000   1.0000   1.0000   1.0000   1.0000
     1.0000   1.0000   1.0000   1.0000   1.0000   1.0000   1.0000   1.0000
     1.0000   1.0000   1.0000   1.0000   0.6915   0.0000   0.0000   0.0000
     0.0000   0.0000   0.0000   0.0000   0.0000   0.0000   0.0000   0.0000
     0.0000   0.0000   0.0000   0.0000   0.0000

     the Fermi energy is    14.3334 ev
     (compare with:    14.3334 eV, computed in scf)
     The nscf band energy is:      -45.18572007 Ry
     Calculation interrupted for call of DMFT code

     Writing all to output data dir ./out/smo.save/ :
     XML data file, pseudopotentials, collected wavefunctions

     init_run     :      0.54s CPU      0.61s WALL (       1 calls)
     electrons    :    267.17s CPU    278.85s WALL (       1 calls)

     Called by init_run:
     wfcinit      :      0.00s CPU      0.00s WALL (       1 calls)
     wfcinit:atom :      0.05s CPU      0.05s WALL (      63 calls)
     wfcinit:wfcr :      2.97s CPU      3.16s WALL (      63 calls)
     potinit      :      0.19s CPU      0.20s WALL (       1 calls)
     hinit0       :      0.24s CPU      0.26s WALL (       1 calls)

     Called by electrons:
     c_bands      :    266.11s CPU    275.78s WALL (       1 calls)
     v_of_rho     :      0.00s CPU      0.00s WALL (       1 calls)
     v_h          :      0.00s CPU      0.00s WALL (       1 calls)
     v_xc         :      0.00s CPU      0.00s WALL (       1 calls)
     newd         :      0.07s CPU      0.10s WALL (       1 calls)
     PAW_pot      :      0.02s CPU      0.02s WALL (       1 calls)

     Called by c_bands:
     init_us_2    :      0.08s CPU      0.09s WALL (      63 calls)
     init_us_2:cp :      0.08s CPU      0.09s WALL (      63 calls)
     cegterg      :    217.71s CPU    227.11s WALL (     282 calls)

     Called by sum_band:

     Called by *egterg:
     cdiaghg      :    143.53s CPU    144.28s WALL (    5338 calls)
     cegterg:over :     12.34s CPU     14.28s WALL (    5275 calls)
     cegterg:upda :      8.12s CPU      8.49s WALL (    5275 calls)
     cegterg:last :      1.89s CPU      1.90s WALL (     345 calls)
     h_psi        :     38.98s CPU     41.04s WALL (    5620 calls)
     s_psi        :      3.88s CPU      4.07s WALL (    5620 calls)
     g_psi        :      0.12s CPU      0.12s WALL (    5275 calls)

     Called by h_psi:
     h_psi:calbec :      7.04s CPU      7.53s WALL (    5620 calls)
     vloc_psi     :     27.28s CPU     28.26s WALL (    5620 calls)
     add_vuspsi   :      4.24s CPU      4.29s WALL (    5620 calls)

     General routines
     calbec       :      7.01s CPU      7.51s WALL (    5620 calls)
     fft          :      0.18s CPU      0.18s WALL (       6 calls)
     ffts         :      0.12s CPU      0.12s WALL (       1 calls)
     fftw         :     24.87s CPU     25.74s WALL (  238524 calls)
     interpolate  :      0.12s CPU      0.12s WALL (       1 calls)
     davcio       :      0.02s CPU      0.09s WALL (     126 calls)

     Parallel routines

     PAW routines
     PAW_pot      :      0.02s CPU      0.02s WALL (       1 calls)

     PWSCF        :   4m28.13s CPU   4m39.91s WALL


   This run was terminated on:  11: 2:38  20Dec2025            

=------------------------------------------------------------------------------=
   JOB DONE.
=------------------------------------------------------------------------------=
