
             +---------------------------------------------------+
             |                                                   |
             |                   WANNIER90                       |
             |                                                   |
             +---------------------------------------------------+
             |                                                   |
             |        Welcome to the Maximally-Localized         |
             |        Generalized Wannier Functions code         |
             |            http://www.wannier.org                 |
             |                                                   |
             |                                                   |
             |  Wannier90 Developer Group:                       |
             |    Giovanni Pizzi    (Paul Scherrer Institute)    |
             |    Valerio Vitale    (University of Trieste)      |
             |    David Vanderbilt  (Rutgers University)         |
             |    Nicola Marzari    (EPFL)                       |
             |    Ivo Souza         (Universidad del Pais Vasco) |
             |    Arash A. Mostofi  (Imperial College London)    |
             |    Jonathan R. Yates (University of Oxford)       |
             |                                                   |
             |  For the full list of Wannier90 3.x authors,      |
             |  please check the code documentation and the      |
             |  README on the GitHub page of the code            |
             |                                                   |
             |                                                   |
             |  Please cite                                      |
             |                                                   |
             |  [ref] "Wannier90 as a community code:            |
             |        new features and applications",            |
             |        G. Pizzi et al., J. Phys. Cond. Matt. 32,  |
             |        165902 (2020).                             |
             |        http://doi.org/10.1088/1361-648X/ab51ff    |
             |                                                   |
             |  in any publications arising from the use of      |
             |  this code. For the method please cite            |
             |                                                   |
             |  [ref] "Maximally Localized Generalised Wannier   |
             |         Functions for Composite Energy Bands"     |
             |         N. Marzari and D. Vanderbilt              |
             |         Phys. Rev. B 56 12847 (1997)              |
             |                                                   |
             |  [ref] "Maximally Localized Wannier Functions     |
             |         for Entangled Energy Bands"               |
             |         I. Souza, N. Marzari and D. Vanderbilt    |
             |         Phys. Rev. B 65 035109 (2001)             |
             |                                                   |
             |                                                   |
             | Copyright (c) 1996-2020                           |
             |        The Wannier90 Developer Group and          |
             |        individual contributors                    |
             |                                                   |
             |      Release: 3.1.0        5th March    2020      |
             |                                                   |
             | This program is free software; you can            |
             | redistribute it and/or modify it under the terms  |
             | of the GNU General Public License as published by |
             | the Free Software Foundation; either version 2 of |
             | the License, or (at your option) any later version|
             |                                                   |
             | This program is distributed in the hope that it   |
             | will be useful, but WITHOUT ANY WARRANTY; without |
             | even the implied warranty of MERCHANTABILITY or   |
             | FITNESS FOR A PARTICULAR PURPOSE. See the GNU     |
             | General Public License for more details.          |
             |                                                   |
             | You should have received a copy of the GNU General|
             | Public License along with this program; if not,   |
             | write to the Free Software Foundation, Inc.,      |
             | 675 Mass Ave, Cambridge, MA 02139, USA.           |
             |                                                   |
             +---------------------------------------------------+
             |    Execution started on 29Nov2025 at 20:40:49     |
             +---------------------------------------------------+
 
 ******************************************************************************
 * -> Using CODATA 2006 constant values                                       *
 *    (http://physics.nist.gov/cuu/Constants/index.html)                      *
 * -> Using Bohr value from CODATA                                            *
 ******************************************************************************

 Running in parallel on 128 CPUs

                                    ------
                                    SYSTEM
                                    ------

                              Lattice Vectors (Ang)
                    a_1     5.613960   0.000000   0.000000
                    a_2     0.000000   5.613960   0.000000
                    a_3     0.000000   0.000000   7.939340

                   Unit Cell Volume:     250.22058  (Ang^3)

                        Reciprocal-Space Vectors (Ang^-1)
                    b_1     1.119207   0.000000   0.000000
                    b_2     0.000000   1.119207   0.000000
                    b_3     0.000000   0.000000   0.791399
  
 *----------------------------------------------------------------------------*
 |   Site       Fractional Coordinate          Cartesian Coordinate (Ang)     |
 +----------------------------------------------------------------------------+
 | sr   1   0.00000   0.50000   0.25000   |    0.00000   2.80698   1.98483    |
 | sr   2   0.00000   0.50000   0.75000   |    0.00000   2.80698   5.95450    |
 | sr   3   0.50000   0.00000   0.75000   |    2.80698   0.00000   5.95450    |
 | sr   4   0.50000   0.00000   0.25000   |    2.80698   0.00000   1.98483    |
 | mo   1   0.00000   0.00000   0.00000   |    0.00000   0.00000   0.00000    |
 | mo   2   0.00000   0.00000   0.50000   |    0.00000   0.00000   3.96967    |
 | mo   3   0.50000   0.50000   0.50000   |    2.80698   2.80698   3.96967    |
 | mo   4   0.50000   0.50000   0.00000   |    2.80698   2.80698   0.00000    |
 | o    1   0.25000   0.75000   0.02672   |    1.40349   4.21047   0.21212    |
 | o    2   0.25000   0.25000  -0.02672   |    1.40349   1.40349  -0.21212    |
 | o    3   0.75000   0.25000   0.52672   |    4.21047   1.40349   4.18179    |
 | o    4   0.75000   0.75000   0.47328   |    4.21047   4.21047   3.75755    |
 | o    5   0.75000   0.25000  -0.02672   |    4.21047   1.40349  -0.21212    |
 | o    6   0.75000   0.75000   0.02672   |    4.21047   4.21047   0.21212    |
 | o    7   0.25000   0.75000   0.47328   |    1.40349   4.21047   3.75755    |
 | o    8   0.25000   0.25000   0.52672   |    1.40349   1.40349   4.18179    |
 | o    9   0.00000   0.05344   0.25000   |    0.00000   0.29999   1.98483    |
 | o   10   0.00000  -0.05344   0.75000   |    0.00000  -0.29999   5.95450    |
 | o   11   0.50000   0.55344   0.75000   |    2.80698   3.10697   5.95450    |
 | o   12   0.50000   0.44656   0.25000   |    2.80698   2.50699   1.98483    |
 *----------------------------------------------------------------------------*
                                -----------
                                PROJECTIONS
                                -----------
  
 +----------------------------------------------------------------------------+
 |     Frac. Coord.   l mr  r        z-axis               x-axis          Z/a |
 +----------------------------------------------------------------------------+
 |  0.00  0.00  0.00  2  2  1  0.000  0.000  1.000  0.707  0.707  0.000   1.0 |
 |  0.00  0.00  0.00  2  3  1  0.000  0.000  1.000  0.707  0.707  0.000   1.0 |
 |  0.00  0.00  0.00  2  5  1  0.000  0.000  1.000  0.707  0.707  0.000   1.0 |
 |  0.00  0.00  0.50  2  2  1  0.000  0.000  1.000  0.707  0.707  0.000   1.0 |
 |  0.00  0.00  0.50  2  3  1  0.000  0.000  1.000  0.707  0.707  0.000   1.0 |
 |  0.00  0.00  0.50  2  5  1  0.000  0.000  1.000  0.707  0.707  0.000   1.0 |
 |  0.50  0.50  0.50  2  2  1  0.000  0.000  1.000  0.707  0.707  0.000   1.0 |
 |  0.50  0.50  0.50  2  3  1  0.000  0.000  1.000  0.707  0.707  0.000   1.0 |
 |  0.50  0.50  0.50  2  5  1  0.000  0.000  1.000  0.707  0.707  0.000   1.0 |
 |  0.50  0.50  0.00  2  2  1  0.000  0.000  1.000  0.707  0.707  0.000   1.0 |
 |  0.50  0.50  0.00  2  3  1  0.000  0.000  1.000  0.707  0.707  0.000   1.0 |
 |  0.50  0.50  0.00  2  5  1  0.000  0.000  1.000  0.707  0.707  0.000   1.0 |
 |  0.00  0.00  0.00  2  1  1  0.000  0.000  1.000  0.707  0.707  0.000   1.0 |
 |  0.00  0.00  0.00  2  4  1  0.000  0.000  1.000  0.707  0.707  0.000   1.0 |
 |  0.00  0.00  0.50  2  1  1  0.000  0.000  1.000  0.707  0.707  0.000   1.0 |
 |  0.00  0.00  0.50  2  4  1  0.000  0.000  1.000  0.707  0.707  0.000   1.0 |
 |  0.50  0.50  0.50  2  1  1  0.000  0.000  1.000  0.707  0.707  0.000   1.0 |
 |  0.50  0.50  0.50  2  4  1  0.000  0.000  1.000  0.707  0.707  0.000   1.0 |
 |  0.50  0.50  0.00  2  1  1  0.000  0.000  1.000  0.707  0.707  0.000   1.0 |
 |  0.50  0.50  0.00  2  4  1  0.000  0.000  1.000  0.707  0.707  0.000   1.0 |
 |  0.25  0.75  0.03  1  1  1  0.000  0.000  1.000  1.000  0.000  0.000   1.0 |
 |  0.25  0.75  0.03  1  2  1  0.000  0.000  1.000  1.000  0.000  0.000   1.0 |
 |  0.25  0.75  0.03  1  3  1  0.000  0.000  1.000  1.000  0.000  0.000   1.0 |
 |  0.25  0.25 -0.03  1  1  1  0.000  0.000  1.000  1.000  0.000  0.000   1.0 |
 |  0.25  0.25 -0.03  1  2  1  0.000  0.000  1.000  1.000  0.000  0.000   1.0 |
 |  0.25  0.25 -0.03  1  3  1  0.000  0.000  1.000  1.000  0.000  0.000   1.0 |
 |  0.75  0.25  0.53  1  1  1  0.000  0.000  1.000  1.000  0.000  0.000   1.0 |
 |  0.75  0.25  0.53  1  2  1  0.000  0.000  1.000  1.000  0.000  0.000   1.0 |
 |  0.75  0.25  0.53  1  3  1  0.000  0.000  1.000  1.000  0.000  0.000   1.0 |
 |  0.75  0.75  0.47  1  1  1  0.000  0.000  1.000  1.000  0.000  0.000   1.0 |
 |  0.75  0.75  0.47  1  2  1  0.000  0.000  1.000  1.000  0.000  0.000   1.0 |
 |  0.75  0.75  0.47  1  3  1  0.000  0.000  1.000  1.000  0.000  0.000   1.0 |
 |  0.75  0.25 -0.03  1  1  1  0.000  0.000  1.000  1.000  0.000  0.000   1.0 |
 |  0.75  0.25 -0.03  1  2  1  0.000  0.000  1.000  1.000  0.000  0.000   1.0 |
 |  0.75  0.25 -0.03  1  3  1  0.000  0.000  1.000  1.000  0.000  0.000   1.0 |
 |  0.75  0.75  0.03  1  1  1  0.000  0.000  1.000  1.000  0.000  0.000   1.0 |
 |  0.75  0.75  0.03  1  2  1  0.000  0.000  1.000  1.000  0.000  0.000   1.0 |
 |  0.75  0.75  0.03  1  3  1  0.000  0.000  1.000  1.000  0.000  0.000   1.0 |
 |  0.25  0.75  0.47  1  1  1  0.000  0.000  1.000  1.000  0.000  0.000   1.0 |
 |  0.25  0.75  0.47  1  2  1  0.000  0.000  1.000  1.000  0.000  0.000   1.0 |
 |  0.25  0.75  0.47  1  3  1  0.000  0.000  1.000  1.000  0.000  0.000   1.0 |
 |  0.25  0.25  0.53  1  1  1  0.000  0.000  1.000  1.000  0.000  0.000   1.0 |
 |  0.25  0.25  0.53  1  2  1  0.000  0.000  1.000  1.000  0.000  0.000   1.0 |
 |  0.25  0.25  0.53  1  3  1  0.000  0.000  1.000  1.000  0.000  0.000   1.0 |
 |  0.00  0.05  0.25  1  1  1  0.000  0.000  1.000  1.000  0.000  0.000   1.0 |
 |  0.00  0.05  0.25  1  2  1  0.000  0.000  1.000  1.000  0.000  0.000   1.0 |
 |  0.00  0.05  0.25  1  3  1  0.000  0.000  1.000  1.000  0.000  0.000   1.0 |
 |  0.00 -0.05  0.75  1  1  1  0.000  0.000  1.000  1.000  0.000  0.000   1.0 |
 |  0.00 -0.05  0.75  1  2  1  0.000  0.000  1.000  1.000  0.000  0.000   1.0 |
 |  0.00 -0.05  0.75  1  3  1  0.000  0.000  1.000  1.000  0.000  0.000   1.0 |
 |  0.50  0.55  0.75  1  1  1  0.000  0.000  1.000  1.000  0.000  0.000   1.0 |
 |  0.50  0.55  0.75  1  2  1  0.000  0.000  1.000  1.000  0.000  0.000   1.0 |
 |  0.50  0.55  0.75  1  3  1  0.000  0.000  1.000  1.000  0.000  0.000   1.0 |
 |  0.50  0.45  0.25  1  1  1  0.000  0.000  1.000  1.000  0.000  0.000   1.0 |
 |  0.50  0.45  0.25  1  2  1  0.000  0.000  1.000  1.000  0.000  0.000   1.0 |
 |  0.50  0.45  0.25  1  3  1  0.000  0.000  1.000  1.000  0.000  0.000   1.0 |
 +----------------------------------------------------------------------------+
  
                                ------------
                                K-POINT GRID
                                ------------
  
             Grid size =  5 x  5 x  5      Total points =  125
  
 *----------------------------------------------------------------------------*
 | k-point      Fractional Coordinate        Cartesian Coordinate (Ang^-1)    |
 +----------------------------------------------------------------------------+
 |     1    0.00000   0.00000   0.00000   |    0.00000   0.00000   0.00000    |
 |     2    0.00000   0.00000   0.20000   |    0.00000   0.00000   0.15828    |
 |     3    0.00000   0.00000   0.40000   |    0.00000   0.00000   0.31656    |
 |     4    0.00000   0.00000   0.60000   |    0.00000   0.00000   0.47484    |
 |     5    0.00000   0.00000   0.80000   |    0.00000   0.00000   0.63312    |
 |     6    0.00000   0.20000   0.00000   |    0.00000   0.22384   0.00000    |
 |     7    0.00000   0.20000   0.20000   |    0.00000   0.22384   0.15828    |
 |     8    0.00000   0.20000   0.40000   |    0.00000   0.22384   0.31656    |
 |     9    0.00000   0.20000   0.60000   |    0.00000   0.22384   0.47484    |
 |    10    0.00000   0.20000   0.80000   |    0.00000   0.22384   0.63312    |
 |    11    0.00000   0.40000   0.00000   |    0.00000   0.44768   0.00000    |
 |    12    0.00000   0.40000   0.20000   |    0.00000   0.44768   0.15828    |
 |    13    0.00000   0.40000   0.40000   |    0.00000   0.44768   0.31656    |
 |    14    0.00000   0.40000   0.60000   |    0.00000   0.44768   0.47484    |
 |    15    0.00000   0.40000   0.80000   |    0.00000   0.44768   0.63312    |
 |    16    0.00000   0.60000   0.00000   |    0.00000   0.67152   0.00000    |
 |    17    0.00000   0.60000   0.20000   |    0.00000   0.67152   0.15828    |
 |    18    0.00000   0.60000   0.40000   |    0.00000   0.67152   0.31656    |
 |    19    0.00000   0.60000   0.60000   |    0.00000   0.67152   0.47484    |
 |    20    0.00000   0.60000   0.80000   |    0.00000   0.67152   0.63312    |
 |    21    0.00000   0.80000   0.00000   |    0.00000   0.89537   0.00000    |
 |    22    0.00000   0.80000   0.20000   |    0.00000   0.89537   0.15828    |
 |    23    0.00000   0.80000   0.40000   |    0.00000   0.89537   0.31656    |
 |    24    0.00000   0.80000   0.60000   |    0.00000   0.89537   0.47484    |
 |    25    0.00000   0.80000   0.80000   |    0.00000   0.89537   0.63312    |
 |    26    0.20000   0.00000   0.00000   |    0.22384   0.00000   0.00000    |
 |    27    0.20000   0.00000   0.20000   |    0.22384   0.00000   0.15828    |
 |    28    0.20000   0.00000   0.40000   |    0.22384   0.00000   0.31656    |
 |    29    0.20000   0.00000   0.60000   |    0.22384   0.00000   0.47484    |
 |    30    0.20000   0.00000   0.80000   |    0.22384   0.00000   0.63312    |
 |    31    0.20000   0.20000   0.00000   |    0.22384   0.22384   0.00000    |
 |    32    0.20000   0.20000   0.20000   |    0.22384   0.22384   0.15828    |
 |    33    0.20000   0.20000   0.40000   |    0.22384   0.22384   0.31656    |
 |    34    0.20000   0.20000   0.60000   |    0.22384   0.22384   0.47484    |
 |    35    0.20000   0.20000   0.80000   |    0.22384   0.22384   0.63312    |
 |    36    0.20000   0.40000   0.00000   |    0.22384   0.44768   0.00000    |
 |    37    0.20000   0.40000   0.20000   |    0.22384   0.44768   0.15828    |
 |    38    0.20000   0.40000   0.40000   |    0.22384   0.44768   0.31656    |
 |    39    0.20000   0.40000   0.60000   |    0.22384   0.44768   0.47484    |
 |    40    0.20000   0.40000   0.80000   |    0.22384   0.44768   0.63312    |
 |    41    0.20000   0.60000   0.00000   |    0.22384   0.67152   0.00000    |
 |    42    0.20000   0.60000   0.20000   |    0.22384   0.67152   0.15828    |
 |    43    0.20000   0.60000   0.40000   |    0.22384   0.67152   0.31656    |
 |    44    0.20000   0.60000   0.60000   |    0.22384   0.67152   0.47484    |
 |    45    0.20000   0.60000   0.80000   |    0.22384   0.67152   0.63312    |
 |    46    0.20000   0.80000   0.00000   |    0.22384   0.89537   0.00000    |
 |    47    0.20000   0.80000   0.20000   |    0.22384   0.89537   0.15828    |
 |    48    0.20000   0.80000   0.40000   |    0.22384   0.89537   0.31656    |
 |    49    0.20000   0.80000   0.60000   |    0.22384   0.89537   0.47484    |
 |    50    0.20000   0.80000   0.80000   |    0.22384   0.89537   0.63312    |
 |    51    0.40000   0.00000   0.00000   |    0.44768   0.00000   0.00000    |
 |    52    0.40000   0.00000   0.20000   |    0.44768   0.00000   0.15828    |
 |    53    0.40000   0.00000   0.40000   |    0.44768   0.00000   0.31656    |
 |    54    0.40000   0.00000   0.60000   |    0.44768   0.00000   0.47484    |
 |    55    0.40000   0.00000   0.80000   |    0.44768   0.00000   0.63312    |
 |    56    0.40000   0.20000   0.00000   |    0.44768   0.22384   0.00000    |
 |    57    0.40000   0.20000   0.20000   |    0.44768   0.22384   0.15828    |
 |    58    0.40000   0.20000   0.40000   |    0.44768   0.22384   0.31656    |
 |    59    0.40000   0.20000   0.60000   |    0.44768   0.22384   0.47484    |
 |    60    0.40000   0.20000   0.80000   |    0.44768   0.22384   0.63312    |
 |    61    0.40000   0.40000   0.00000   |    0.44768   0.44768   0.00000    |
 |    62    0.40000   0.40000   0.20000   |    0.44768   0.44768   0.15828    |
 |    63    0.40000   0.40000   0.40000   |    0.44768   0.44768   0.31656    |
 |    64    0.40000   0.40000   0.60000   |    0.44768   0.44768   0.47484    |
 |    65    0.40000   0.40000   0.80000   |    0.44768   0.44768   0.63312    |
 |    66    0.40000   0.60000   0.00000   |    0.44768   0.67152   0.00000    |
 |    67    0.40000   0.60000   0.20000   |    0.44768   0.67152   0.15828    |
 |    68    0.40000   0.60000   0.40000   |    0.44768   0.67152   0.31656    |
 |    69    0.40000   0.60000   0.60000   |    0.44768   0.67152   0.47484    |
 |    70    0.40000   0.60000   0.80000   |    0.44768   0.67152   0.63312    |
 |    71    0.40000   0.80000   0.00000   |    0.44768   0.89537   0.00000    |
 |    72    0.40000   0.80000   0.20000   |    0.44768   0.89537   0.15828    |
 |    73    0.40000   0.80000   0.40000   |    0.44768   0.89537   0.31656    |
 |    74    0.40000   0.80000   0.60000   |    0.44768   0.89537   0.47484    |
 |    75    0.40000   0.80000   0.80000   |    0.44768   0.89537   0.63312    |
 |    76    0.60000   0.00000   0.00000   |    0.67152   0.00000   0.00000    |
 |    77    0.60000   0.00000   0.20000   |    0.67152   0.00000   0.15828    |
 |    78    0.60000   0.00000   0.40000   |    0.67152   0.00000   0.31656    |
 |    79    0.60000   0.00000   0.60000   |    0.67152   0.00000   0.47484    |
 |    80    0.60000   0.00000   0.80000   |    0.67152   0.00000   0.63312    |
 |    81    0.60000   0.20000   0.00000   |    0.67152   0.22384   0.00000    |
 |    82    0.60000   0.20000   0.20000   |    0.67152   0.22384   0.15828    |
 |    83    0.60000   0.20000   0.40000   |    0.67152   0.22384   0.31656    |
 |    84    0.60000   0.20000   0.60000   |    0.67152   0.22384   0.47484    |
 |    85    0.60000   0.20000   0.80000   |    0.67152   0.22384   0.63312    |
 |    86    0.60000   0.40000   0.00000   |    0.67152   0.44768   0.00000    |
 |    87    0.60000   0.40000   0.20000   |    0.67152   0.44768   0.15828    |
 |    88    0.60000   0.40000   0.40000   |    0.67152   0.44768   0.31656    |
 |    89    0.60000   0.40000   0.60000   |    0.67152   0.44768   0.47484    |
 |    90    0.60000   0.40000   0.80000   |    0.67152   0.44768   0.63312    |
 |    91    0.60000   0.60000   0.00000   |    0.67152   0.67152   0.00000    |
 |    92    0.60000   0.60000   0.20000   |    0.67152   0.67152   0.15828    |
 |    93    0.60000   0.60000   0.40000   |    0.67152   0.67152   0.31656    |
 |    94    0.60000   0.60000   0.60000   |    0.67152   0.67152   0.47484    |
 |    95    0.60000   0.60000   0.80000   |    0.67152   0.67152   0.63312    |
 |    96    0.60000   0.80000   0.00000   |    0.67152   0.89537   0.00000    |
 |    97    0.60000   0.80000   0.20000   |    0.67152   0.89537   0.15828    |
 |    98    0.60000   0.80000   0.40000   |    0.67152   0.89537   0.31656    |
 |    99    0.60000   0.80000   0.60000   |    0.67152   0.89537   0.47484    |
 |   100    0.60000   0.80000   0.80000   |    0.67152   0.89537   0.63312    |
 |   101    0.80000   0.00000   0.00000   |    0.89537   0.00000   0.00000    |
 |   102    0.80000   0.00000   0.20000   |    0.89537   0.00000   0.15828    |
 |   103    0.80000   0.00000   0.40000   |    0.89537   0.00000   0.31656    |
 |   104    0.80000   0.00000   0.60000   |    0.89537   0.00000   0.47484    |
 |   105    0.80000   0.00000   0.80000   |    0.89537   0.00000   0.63312    |
 |   106    0.80000   0.20000   0.00000   |    0.89537   0.22384   0.00000    |
 |   107    0.80000   0.20000   0.20000   |    0.89537   0.22384   0.15828    |
 |   108    0.80000   0.20000   0.40000   |    0.89537   0.22384   0.31656    |
 |   109    0.80000   0.20000   0.60000   |    0.89537   0.22384   0.47484    |
 |   110    0.80000   0.20000   0.80000   |    0.89537   0.22384   0.63312    |
 |   111    0.80000   0.40000   0.00000   |    0.89537   0.44768   0.00000    |
 |   112    0.80000   0.40000   0.20000   |    0.89537   0.44768   0.15828    |
 |   113    0.80000   0.40000   0.40000   |    0.89537   0.44768   0.31656    |
 |   114    0.80000   0.40000   0.60000   |    0.89537   0.44768   0.47484    |
 |   115    0.80000   0.40000   0.80000   |    0.89537   0.44768   0.63312    |
 |   116    0.80000   0.60000   0.00000   |    0.89537   0.67152   0.00000    |
 |   117    0.80000   0.60000   0.20000   |    0.89537   0.67152   0.15828    |
 |   118    0.80000   0.60000   0.40000   |    0.89537   0.67152   0.31656    |
 |   119    0.80000   0.60000   0.60000   |    0.89537   0.67152   0.47484    |
 |   120    0.80000   0.60000   0.80000   |    0.89537   0.67152   0.63312    |
 |   121    0.80000   0.80000   0.00000   |    0.89537   0.89537   0.00000    |
 |   122    0.80000   0.80000   0.20000   |    0.89537   0.89537   0.15828    |
 |   123    0.80000   0.80000   0.40000   |    0.89537   0.89537   0.31656    |
 |   124    0.80000   0.80000   0.60000   |    0.89537   0.89537   0.47484    |
 |   125    0.80000   0.80000   0.80000   |    0.89537   0.89537   0.63312    |
 *----------------------------------------------------------------------------*
  
  
 *---------------------------------- MAIN ------------------------------------*
 |  Number of Wannier Functions               :                56             |
 |  Number of Objective Wannier Functions     :                56             |
 |  Number of input Bloch states              :                56             |
 |  Output verbosity (1=low, 5=high)          :                 2             |
 |  Timing Level (1=low, 5=high)              :                 1             |
 |  Optimisation (0=memory, 3=speed)          :                 3             |
 |  Length Unit                               :               Ang             |
 |  Post-processing setup (write *.nnkp)      :                 F             |
 |  Using Gamma-only branch of algorithms     :                 F             |
 *----------------------------------------------------------------------------*
 *------------------------------- WANNIERISE ---------------------------------*
 |  Total number of iterations                :             10000             |
 |  Number of CG steps before reset           :                 5             |
 |  Trial step length for line search         :             2.000             |
 |  Convergence tolerence                     :         0.100E-11             |
 |  Convergence window                        :                 5             |
 |  Iterations between writing output         :               200             |
 |  Iterations between backing up to disk     :               100             |
 |  Write r^2_nm to file                      :                 F             |
 |  Write xyz WF centres to file              :                 F             |
 |  Write on-site energies <0n|H|0n> to file  :                 F             |
 |  Use guiding centre to control phases      :                 F             |
 |  Use phases for initial projections        :                 F             |
 *----------------------------------------------------------------------------*
 *-------------------------------- PLOTTING ----------------------------------*
 |  Plotting interpolated bandstructure       :                 T             |
 |   Number of K-path sections                :                 7             |
 |   Divisions along first K-path section     :               100             |
 |   Output format                            :           gnuplot             |
 |   Output mode                              :               s-k             |
 *----------------------------------------------------------------------------*
 |   K-space path sections:                                                   |
 |    From: G       0.000  0.000  0.000     To: X       0.000  0.500  0.000   |
 |    From: X       0.000  0.500  0.000     To: M       0.500  0.500  0.000   |
 |    From: M       0.500  0.500  0.000     To: G       0.000  0.000  0.000   |
 |    From: G       0.000  0.000  0.000     To: Z       0.000  0.000  0.500   |
 |    From: Z       0.000  0.000  0.500     To: R       0.000  0.500  0.500   |
 |    From: R       0.000  0.500  0.500     To: A       0.500  0.500  0.500   |
 |    From: A       0.500  0.500  0.500     To: Z       0.000  0.000  0.500   |
 *----------------------------------------------------------------------------*
 |  Plotting Hamiltonian in WF basis          :                 T             |
 *----------------------------------------------------------------------------*

 *---------------------------------- K-MESH ----------------------------------*
 +----------------------------------------------------------------------------+
 |                    Distance to Nearest-Neighbour Shells                    |
 |                    ------------------------------------                    |
 |          Shell             Distance (Ang^-1)          Multiplicity         |
 |          -----             -----------------          ------------         |
 |             1                   0.158280                      2            |
 |             2                   0.223841                      4            |
 |             3                   0.274149                      8            |
 |             4                   0.316560                      6            |
 |             5                   0.353924                      8            |
 |             6                   0.387705                      8            |
 |             7                   0.447683                     12            |
 |             8                   0.474839                     10            |
 |             9                   0.500525                      8            |
 |            10                   0.524955                     24            |
 |            11                   0.548297                      8            |
 |            12                   0.570686                      8            |
 |            13                   0.592229                     16            |
 |            14                   0.633119                      6            |
 |            15                   0.652604                     16            |
 |            16                   0.671524                     12            |
 |            17                   0.689926                     24            |
 |            18                   0.707849                     24            |
 |            19                   0.725329                     16            |
 |            20                   0.742398                      8            |
 |            21                   0.775409                     24            |
 |            22                   0.791399                     10            |
 |            23                   0.807072                     24            |
 |            24                   0.822446                     32            |
 |            25                   0.852363                     24            |
 |            26                   0.866934                     16            |
 |            27                   0.895366                     12            |
 |            28                   0.909248                     16            |
 |            29                   0.922922                     16            |
 |            30                   0.936396                     48            |
 |            31                   0.949679                     30            |
 |            32                   0.962779                      8            |
 |            33                   0.975702                     24            |
 |            34                   1.001049                     24            |
 |            35                   1.013485                     32            |
 |            36                   1.025770                     16            |
 +----------------------------------------------------------------------------+
 | The b-vectors are chosen automatically                                     |
 | Shell:  1 w_b   19.9580947      (Ang^2)                                    |
 | Shell:  1 w_b   19.9580947      (Ang^2)                                    |
 | Shell:  2 w_b    9.9790432      (Ang^2)                                    |
 | The following shells are used:   1,  2                 |
 +----------------------------------------------------------------------------+
 |                        Shell   # Nearest-Neighbours                        |
 |                        -----   --------------------                        |
 |                          1               2                                 |
 |                          2               4                                 |
 +----------------------------------------------------------------------------+
 | Completeness relation is fully satisfied [Eq. (B1), PRB 56, 12847 (1997)]  |
 +----------------------------------------------------------------------------+
 |                  b_k Vectors (Ang^-1) and Weights (Ang^2)                  |
 |                  ----------------------------------------                  |
 |            No.         b_k(x)      b_k(y)      b_k(z)        w_b           |
 |            ---        --------------------------------     --------        |
 |             1         0.000000    0.000000    0.158280    19.958095        |
 |             2         0.000000    0.000000   -0.158280    19.958095        |
 |             3         0.000000    0.223841    0.000000     9.979043        |
 |             4         0.223841    0.000000    0.000000     9.979043        |
 |             5         0.000000   -0.223841    0.000000     9.979043        |
 |             6        -0.223841    0.000000    0.000000     9.979043        |
 +----------------------------------------------------------------------------+
 |                           b_k Directions (Ang^-1)                          |
 |                           -----------------------                          |
 |            No.           x           y           z                         |
 |            ---        --------------------------------                     |
 |             1         0.000000    0.000000    0.158280                     |
 |             2         0.000000    0.223841    0.000000                     |
 |             3         0.223841    0.000000    0.000000                     |
 +----------------------------------------------------------------------------+
  
 Starting a new Wannier90 calculation ...


 Reading overlaps from smo.mmn    :  Created on 29Nov2025 at 20:40:19

 Reading projections from smo.amn :  Created on 29Nov2025 at 20:40: 0

 *------------------------------- WANNIERISE ---------------------------------*
 +--------------------------------------------------------------------+<-- CONV
 | Iter  Delta Spread     RMS Gradient      Spread (Ang^2)      Time  |<-- CONV
 +--------------------------------------------------------------------+<-- CONV

 ------------------------------------------------------------------------------
 Initial State
  WF centre and spread    1  (  0.000980, -0.001329,  0.000520 )     3.74711806
  WF centre and spread    2  ( -0.000798, -0.001681,  0.002225 )     3.77870231
  WF centre and spread    3  ( -0.000005, -0.000023,  0.000011 )     1.40868412
  WF centre and spread    4  ( -0.002366, -0.001540,  3.972243 )     3.85449171
  WF centre and spread    5  (  0.001093, -0.005784,  3.972857 )     3.80132426
  WF centre and spread    6  (  0.000050,  0.000011,  3.969670 )     1.40695262
  WF centre and spread    7  (  2.804612,  2.801958,  3.973520 )     3.83093718
  WF centre and spread    8  (  2.809656,  2.803252,  3.973060 )     3.85881814
  WF centre and spread    9  (  2.806968,  2.807019,  3.969745 )     1.40771852
  WF centre and spread   10  (  2.810089,  2.803976,  0.002062 )     3.74960787
  WF centre and spread   11  (  2.806406,  2.805111,  0.001913 )     3.76883660
  WF centre and spread   12  (  2.807014,  2.806925,  0.000018 )     1.40905995
  WF centre and spread   13  ( -0.013217, -0.022315, -0.017070 )    29.46818163
  WF centre and spread   14  (  0.032655, -0.070598,  0.098976 )    35.22467532
  WF centre and spread   15  ( -0.007610, -0.083956,  4.007301 )    30.32220739
  WF centre and spread   16  ( -0.026256, -0.061805,  4.074567 )    36.89083695
  WF centre and spread   17  (  2.808910,  2.713411,  4.028167 )    30.62089809
  WF centre and spread   18  (  2.776798,  2.732847,  4.034872 )    36.55531376
  WF centre and spread   19  (  2.826136,  2.753129,  0.018010 )    29.68180146
  WF centre and spread   20  (  2.828743,  2.812524,  0.049666 )    35.03446735
  WF centre and spread   21  (  1.403457,  4.210433,  0.240595 )     1.16249322
  WF centre and spread   22  (  1.404680,  4.206804,  0.243344 )     6.44305699
  WF centre and spread   23  (  1.402807,  4.204776,  0.233999 )     6.38734418
  WF centre and spread   24  (  1.403455,  1.403394, -0.240835 )     1.16269029
  WF centre and spread   25  (  1.408638,  1.400810, -0.225288 )     6.42485253
  WF centre and spread   26  (  1.408330,  1.398857, -0.214826 )     6.39199557
  WF centre and spread   27  (  4.210475,  1.403526,  4.213061 )     1.16502306
  WF centre and spread   28  (  4.212838,  1.391013,  4.206281 )     6.81520036
  WF centre and spread   29  (  4.211793,  1.391860,  4.196145 )     6.72452478
  WF centre and spread   30  (  4.210456,  4.210466,  3.726492 )     1.16421969
  WF centre and spread   31  (  4.203121,  4.203405,  3.751954 )     6.84399407
  WF centre and spread   32  (  4.203407,  4.205026,  3.762628 )     6.78484710
  WF centre and spread   33  (  4.210456,  1.403470, -0.240615 )     1.16214276
  WF centre and spread   34  (  4.210308,  1.401605, -0.224908 )     6.52891522
  WF centre and spread   35  (  4.212079,  1.403363, -0.214657 )     6.44445992
  WF centre and spread   36  (  4.210480,  4.210546,  0.240651 )     1.16228573
  WF centre and spread   37  (  4.216267,  4.205757,  0.241620 )     6.43819725
  WF centre and spread   38  (  4.216820,  4.206667,  0.230943 )     6.39042912
  WF centre and spread   39  (  1.403557,  4.210400,  3.726270 )     1.16553352
  WF centre and spread   40  (  1.405982,  4.204730,  3.755089 )     6.79011001
  WF centre and spread   41  (  1.403780,  4.202911,  3.766466 )     6.69882065
  WF centre and spread   42  (  1.403444,  1.403425,  4.212889 )     1.16567657
  WF centre and spread   43  (  1.398186,  1.400312,  4.206304 )     6.80400151
  WF centre and spread   44  (  1.401925,  1.398007,  4.196454 )     6.72701398
  WF centre and spread   45  ( -0.004130,  0.272353,  2.003790 )    10.62058860
  WF centre and spread   46  ( -0.000118,  0.302916,  1.984869 )     1.14579835
  WF centre and spread   47  ( -0.000016,  0.364667,  1.985070 )     1.22779907
  WF centre and spread   48  (  0.000480, -0.297147,  5.945287 )    10.44278612
  WF centre and spread   49  ( -0.000073, -0.303009,  5.954493 )     1.14682103
  WF centre and spread   50  (  0.000016, -0.364948,  5.954285 )     1.23175102
  WF centre and spread   51  (  2.812370,  3.059636,  5.946835 )    10.55561215
  WF centre and spread   52  (  2.807110,  3.109958,  5.954507 )     1.14639585
  WF centre and spread   53  (  2.807076,  3.172119,  5.954525 )     1.23302247
  WF centre and spread   54  (  2.808689,  2.518852,  2.013546 )    10.59130824
  WF centre and spread   55  (  2.807051,  2.504010,  1.984837 )     1.14621287
  WF centre and spread   56  (  2.806908,  2.441312,  1.985049 )     1.23198920
  Sum of centres and spreads (112.291961,111.653417,135.589478 )   466.48854634

      0     0.466E+03     0.0000000000      466.4885463373       0.00  <-- CONV
        O_D=      6.6599969 O_OD=    304.9687956 O_TOT=    466.4885463 <-- SPRD
 ------------------------------------------------------------------------------
 Cycle:      1
  WF centre and spread    1  (  0.001250, -0.000103,  0.000202 )     3.02421856
  WF centre and spread    2  ( -0.001826, -0.003518,  0.003612 )     3.00207652
  WF centre and spread    3  (  0.000251,  0.000236,  0.000109 )     1.41719736
  WF centre and spread    4  ( -0.001498, -0.002245,  3.970000 )     3.00031912
  WF centre and spread    5  (  0.001054, -0.003529,  3.973256 )     3.02237002
  WF centre and spread    6  (  0.000045,  0.000141,  3.969878 )     1.41530119
  WF centre and spread    7  (  2.800937,  2.803977,  3.968134 )     2.99195385
  WF centre and spread    8  (  2.809208,  2.804492,  3.971658 )     3.00964180
  WF centre and spread    9  (  2.806974,  2.807261,  3.969558 )     1.40561499
  WF centre and spread   10  (  2.808018,  2.804236, -0.001938 )     2.95744616
  WF centre and spread   11  (  2.802871,  2.806707,  0.002559 )     2.95833400
  WF centre and spread   12  (  2.807159,  2.807004,  0.000217 )     1.40069130
  WF centre and spread   13  ( -0.005643, -0.061144,  0.035849 )    31.96231322
  WF centre and spread   14  (  0.003615, -0.109024,  0.125634 )    36.56943028
  WF centre and spread   15  (  0.002034, -0.142926,  4.044918 )    33.12488442
  WF centre and spread   16  ( -0.044724, -0.060695,  4.168099 )    42.95252442
  WF centre and spread   17  (  2.774287,  2.723159,  3.946496 )    32.72380703
  WF centre and spread   18  (  2.708733,  2.739392,  4.065014 )    43.09209589
  WF centre and spread   19  (  2.778309,  2.766366, -0.073608 )    30.74927934
  WF centre and spread   20  (  2.807514,  2.888728,  0.135251 )    36.14032142
  WF centre and spread   21  (  1.403329,  4.210464,  0.243554 )     1.19430372
  WF centre and spread   22  (  1.399315,  4.208641,  0.247419 )     4.57772024
  WF centre and spread   23  (  1.396946,  4.205339,  0.235684 )     4.52917408
  WF centre and spread   24  (  1.403580,  1.403365, -0.244347 )     1.19119601
  WF centre and spread   25  (  1.405699,  1.405364, -0.221137 )     4.62811240
  WF centre and spread   26  (  1.405100,  1.404088, -0.207900 )     4.58619078
  WF centre and spread   27  (  4.210557,  1.403385,  4.217127 )     1.20194047
  WF centre and spread   28  (  4.213538,  1.398904,  4.208506 )     4.57660073
  WF centre and spread   29  (  4.213109,  1.400721,  4.198094 )     4.51733829
  WF centre and spread   30  (  4.210606,  4.210415,  3.722706 )     1.19665206
  WF centre and spread   31  (  4.201520,  4.205790,  3.742145 )     4.59630508
  WF centre and spread   32  (  4.200210,  4.207166,  3.755647 )     4.56841213
  WF centre and spread   33  (  4.210506,  1.403474, -0.242941 )     1.19758147
  WF centre and spread   34  (  4.204835,  1.400770, -0.216815 )     4.64884283
  WF centre and spread   35  (  4.207486,  1.404734, -0.205900 )     4.58507020
  WF centre and spread   36  (  4.210508,  4.210525,  0.243584 )     1.19644826
  WF centre and spread   37  (  4.212945,  4.206181,  0.238499 )     4.57274490
  WF centre and spread   38  (  4.214827,  4.208275,  0.227854 )     4.55207285
  WF centre and spread   39  (  1.403361,  4.210387,  3.721238 )     1.19461029
  WF centre and spread   40  (  1.406865,  4.206149,  3.752085 )     4.61363195
  WF centre and spread   41  (  1.402374,  4.201766,  3.763735 )     4.50884626
  WF centre and spread   42  (  1.403570,  1.403435,  4.217637 )     1.19924167
  WF centre and spread   43  (  1.396199,  1.402334,  4.198323 )     4.56543889
  WF centre and spread   44  (  1.400495,  1.396632,  4.186918 )     4.54131944
  WF centre and spread   45  ( -0.003427,  0.273132,  2.017215 )     8.50053158
  WF centre and spread   46  ( -0.000178,  0.305172,  1.984213 )     1.15243886
  WF centre and spread   47  ( -0.000129,  0.365619,  1.984450 )     1.23626232
  WF centre and spread   48  (  0.005162, -0.303099,  5.934640 )     8.44314107
  WF centre and spread   49  ( -0.000710, -0.305326,  5.955167 )     1.15823349
  WF centre and spread   50  (  0.000062, -0.366455,  5.954702 )     1.23891972
  WF centre and spread   51  (  2.801522,  3.069144,  5.931226 )     8.19203471
  WF centre and spread   52  (  2.807064,  3.112254,  5.955159 )     1.16395782
  WF centre and spread   53  (  2.806808,  3.174009,  5.954984 )     1.23744842
  WF centre and spread   54  (  2.795145,  2.522389,  1.990496 )     8.27535781
  WF centre and spread   55  (  2.807352,  2.501673,  1.984364 )     1.15901625
  WF centre and spread   56  (  2.806475,  2.438932,  1.984827 )     1.23330756
  Sum of centres and spreads (112.021194,111.674265,135.688060 )   442.65026552

      1    -0.238E+02    11.2846891775      442.6502655180       0.10  <-- CONV
        O_D=     27.0855105 O_OD=    260.7050012 O_TOT=    442.6502655 <-- SPRD
 Delta: O_D=  0.2042551E+02 O_OD= -0.4426379E+02 O_TOT= -0.2383828E+02 <-- DLTA
 ------------------------------------------------------------------------------
 Cycle:    200
  WF centre and spread    1  ( -0.000518,  0.003222,  0.002463 )     1.44604167
  WF centre and spread    2  (  0.000279,  0.002124,  0.000542 )     1.44208965
  WF centre and spread    3  ( -0.001044,  0.000387,  0.000362 )     1.31956111
  WF centre and spread    4  (  0.001128,  0.000184,  3.971347 )     1.41129610
  WF centre and spread    5  ( -0.000918, -0.000271,  3.971962 )     1.42963766
  WF centre and spread    6  ( -0.001028,  0.000865,  3.970508 )     1.32120886
  WF centre and spread    7  (  2.805902,  2.806425,  3.969445 )     1.44656458
  WF centre and spread    8  (  2.807725,  2.806706,  3.969960 )     1.43397425
  WF centre and spread    9  (  2.806259,  2.807156,  3.969921 )     1.32144193
  WF centre and spread   10  (  2.806887,  2.806318, -0.001101 )     1.41720212
  WF centre and spread   11  (  2.806002,  2.807727,  0.000367 )     1.41408188
  WF centre and spread   12  (  2.806102,  2.806903,  0.000084 )     1.31541691
  WF centre and spread   13  ( -0.196647,  0.279226,  0.128005 )    24.08803602
  WF centre and spread   14  ( -0.245826, -0.380365,  0.243971 )    22.19450398
  WF centre and spread   15  ( -0.460697,  0.495138,  4.412865 )    30.53020173
  WF centre and spread   16  ( -0.101280,  0.169783,  3.849376 )    23.84118368
  WF centre and spread   17  (  2.767219,  2.992961,  3.656606 )    23.90898901
  WF centre and spread   18  (  2.738738,  3.090907,  3.955198 )    23.83755367
  WF centre and spread   19  (  2.655239,  2.777613,  0.004696 )    25.22977033
  WF centre and spread   20  (  2.513463,  2.790106,  0.398913 )    25.58236789
  WF centre and spread   21  (  1.404037,  4.210567,  0.241410 )     1.07553830
  WF centre and spread   22  (  1.409255,  4.220605,  0.215825 )     1.38537506
  WF centre and spread   23  (  1.391170,  4.201660,  0.213763 )     1.40203302
  WF centre and spread   24  (  1.403143,  1.403333, -0.249123 )     1.07611317
  WF centre and spread   25  (  1.406464,  1.406115, -0.210687 )     1.36036907
  WF centre and spread   26  (  1.404976,  1.408257, -0.210971 )     1.38402752
  WF centre and spread   27  (  4.209979,  1.403469,  4.218868 )     1.07063091
  WF centre and spread   28  (  4.209461,  1.399326,  4.182791 )     1.37150969
  WF centre and spread   29  (  4.216685,  1.410917,  4.180201 )     1.36875747
  WF centre and spread   30  (  4.210349,  4.210584,  3.721834 )     1.08083150
  WF centre and spread   31  (  4.210849,  4.198382,  3.756044 )     1.35876546
  WF centre and spread   32  (  4.198918,  4.211770,  3.757311 )     1.35317188
  WF centre and spread   33  (  4.210402,  1.403921, -0.246499 )     1.07803470
  WF centre and spread   34  (  4.210070,  1.407900, -0.210836 )     1.35660300
  WF centre and spread   35  (  4.207750,  1.401591, -0.211760 )     1.38611551
  WF centre and spread   36  (  4.210508,  4.210764,  0.242818 )     1.06987507
  WF centre and spread   37  (  4.204738,  4.203025,  0.215059 )     1.37837347
  WF centre and spread   38  (  4.204692,  4.202564,  0.213671 )     1.39617626
  WF centre and spread   39  (  1.403458,  4.210446,  3.721577 )     1.07279260
  WF centre and spread   40  (  1.404782,  4.213316,  3.757292 )     1.33639058
  WF centre and spread   41  (  1.403931,  4.209187,  3.759328 )     1.34760553
  WF centre and spread   42  (  1.403483,  1.403640,  4.218041 )     1.07990651
  WF centre and spread   43  (  1.403361,  1.412911,  4.180997 )     1.36296756
  WF centre and spread   44  (  1.410621,  1.400679,  4.178640 )     1.35118284
  WF centre and spread   45  ( -0.003941,  0.275411,  2.021180 )     1.82917074
  WF centre and spread   46  ( -0.000673,  0.306602,  1.984178 )     1.04711365
  WF centre and spread   47  ( -0.001312,  0.363250,  1.984703 )     1.08221214
  WF centre and spread   48  ( -0.005680, -0.262232,  5.915117 )     1.81836280
  WF centre and spread   49  (  0.000847, -0.306527,  5.954640 )     1.04443216
  WF centre and spread   50  ( -0.000619, -0.366723,  5.954729 )     1.07577998
  WF centre and spread   51  (  2.803243,  3.068016,  5.935719 )     1.79835866
  WF centre and spread   52  (  2.808820,  3.113816,  5.954557 )     1.04595764
  WF centre and spread   53  (  2.806454,  3.173222,  5.954485 )     1.08124254
  WF centre and spread   54  (  2.803168,  2.550295,  1.995860 )     1.79327174
  WF centre and spread   55  (  2.804662,  2.499661,  1.984957 )     1.05126070
  WF centre and spread   56  (  2.805745,  2.437390,  1.984509 )     1.08752801
  Sum of centres and spreads (110.680781,113.280223,135.735715 )   262.18896048

    200    -0.794E-02    14.1008874689      262.1889604835      18.42  <-- CONV
        O_D=      3.9743609 O_OD=    103.3548457 O_TOT=    262.1889605 <-- SPRD
 Delta: O_D= -0.6094795E-02 O_OD= -0.1841388E-02 O_TOT= -0.7936182E-02 <-- DLTA
 ------------------------------------------------------------------------------
 Cycle:    400
  WF centre and spread    1  ( -0.000416,  0.002959,  0.002251 )     1.43118304
  WF centre and spread    2  (  0.000367,  0.001948,  0.000526 )     1.42782053
  WF centre and spread    3  ( -0.000994,  0.000426,  0.000374 )     1.32014888
  WF centre and spread    4  (  0.001039,  0.000089,  3.971231 )     1.39700515
  WF centre and spread    5  ( -0.000770, -0.000448,  3.971740 )     1.41325835
  WF centre and spread    6  ( -0.001009,  0.000886,  3.970486 )     1.32201563
  WF centre and spread    7  (  2.805892,  2.806393,  3.969428 )     1.43404982
  WF centre and spread    8  (  2.807609,  2.806761,  3.969819 )     1.41996175
  WF centre and spread    9  (  2.806268,  2.807187,  3.969915 )     1.32191147
  WF centre and spread   10  (  2.806926,  2.806416, -0.000860 )     1.40200837
  WF centre and spread   11  (  2.806187,  2.807657,  0.000311 )     1.39965288
  WF centre and spread   12  (  2.806117,  2.806916,  0.000144 )     1.31557857
  WF centre and spread   13  ( -0.187333,  0.272192,  0.109958 )    23.60952226
  WF centre and spread   14  ( -0.233705, -0.357109,  0.240234 )    21.29411169
  WF centre and spread   15  ( -0.502605,  0.541869,  4.474171 )    30.77236251
  WF centre and spread   16  ( -0.112668,  0.134729,  3.857551 )    23.34851984
  WF centre and spread   17  (  2.773359,  3.062997,  3.629289 )    23.80195376
  WF centre and spread   18  (  2.750326,  3.099750,  3.974357 )    23.97047719
  WF centre and spread   19  (  2.641753,  2.844079,  0.038442 )    25.23694270
  WF centre and spread   20  (  2.477802,  2.823132,  0.395111 )    25.44116554
  WF centre and spread   21  (  1.404039,  4.210536,  0.241150 )     1.07541555
  WF centre and spread   22  (  1.409738,  4.220278,  0.215784 )     1.37071728
  WF centre and spread   23  (  1.391861,  4.201218,  0.213733 )     1.38771467
  WF centre and spread   24  (  1.403159,  1.403377, -0.248846 )     1.07463834
  WF centre and spread   25  (  1.407321,  1.407010, -0.210827 )     1.34922835
  WF centre and spread   26  (  1.405772,  1.409526, -0.211099 )     1.36852786
  WF centre and spread   27  (  4.209948,  1.403440,  4.218388 )     1.06870213
  WF centre and spread   28  (  4.208661,  1.399943,  4.182697 )     1.35382142
  WF centre and spread   29  (  4.215789,  1.411197,  4.180222 )     1.35474587
  WF centre and spread   30  (  4.210393,  4.210582,  3.723043 )     1.07882936
  WF centre and spread   31  (  4.210098,  4.197891,  3.756378 )     1.34410052
  WF centre and spread   32  (  4.198412,  4.210674,  3.757472 )     1.34135100
  WF centre and spread   33  (  4.210380,  1.403949, -0.246552 )     1.07763734
  WF centre and spread   34  (  4.209979,  1.408557, -0.211005 )     1.34672473
  WF centre and spread   35  (  4.207015,  1.401727, -0.211856 )     1.37536769
  WF centre and spread   36  (  4.210484,  4.210744,  0.242672 )     1.06801149
  WF centre and spread   37  (  4.203526,  4.201964,  0.214807 )     1.35977328
  WF centre and spread   38  (  4.203570,  4.201584,  0.213462 )     1.37936710
  WF centre and spread   39  (  1.403452,  4.210461,  3.722191 )     1.07008838
  WF centre and spread   40  (  1.405343,  4.212396,  3.757413 )     1.31952894
  WF centre and spread   41  (  1.404841,  4.208796,  3.759204 )     1.33135176
  WF centre and spread   42  (  1.403446,  1.403685,  4.217856 )     1.07933625
  WF centre and spread   43  (  1.404752,  1.413463,  4.181124 )     1.34588652
  WF centre and spread   44  (  1.410947,  1.401081,  4.178891 )     1.33677345
  WF centre and spread   45  ( -0.003236,  0.274431,  2.022390 )     1.77697022
  WF centre and spread   46  ( -0.000587,  0.306463,  1.984205 )     1.04660745
  WF centre and spread   47  ( -0.001305,  0.363030,  1.984677 )     1.08119863
  WF centre and spread   48  ( -0.005193, -0.262611,  5.912309 )     1.76605526
  WF centre and spread   49  (  0.001115, -0.306364,  5.954675 )     1.04339913
  WF centre and spread   50  ( -0.000611, -0.366587,  5.954750 )     1.07480359
  WF centre and spread   51  (  2.803314,  3.068682,  5.938830 )     1.75588690
  WF centre and spread   52  (  2.809051,  3.113577,  5.954587 )     1.04564948
  WF centre and spread   53  (  2.806499,  3.172877,  5.954519 )     1.08004476
  WF centre and spread   54  (  2.803800,  2.550960,  1.992151 )     1.73795800
  WF centre and spread   55  (  2.804830,  2.499721,  1.985017 )     1.05042207
  WF centre and spread   56  (  2.805853,  2.437563,  1.984502 )     1.08600743
  Sum of centres and spreads (110.620603,113.484649,135.803395 )   259.88229214

    400     0.117E-01     7.5725008982      259.8822921410      36.81  <-- CONV
        O_D=      3.8668317 O_OD=    101.1557066 O_TOT=    259.8822921 <-- SPRD
 Delta: O_D=  0.9979824E-02 O_OD=  0.1705040E-02 O_TOT=  0.1168486E-01 <-- DLTA
 ------------------------------------------------------------------------------
 Cycle:    600
  WF centre and spread    1  ( -0.000317,  0.002741,  0.002038 )     1.41876549
  WF centre and spread    2  (  0.000417,  0.001776,  0.000494 )     1.41622953
  WF centre and spread    3  ( -0.000935,  0.000446,  0.000389 )     1.32063279
  WF centre and spread    4  (  0.000963,  0.000001,  3.971097 )     1.38583007
  WF centre and spread    5  ( -0.000618, -0.000583,  3.971481 )     1.40007494
  WF centre and spread    6  ( -0.000980,  0.000918,  3.970471 )     1.32269013
  WF centre and spread    7  (  2.805906,  2.806369,  3.969412 )     1.42296157
  WF centre and spread    8  (  2.807541,  2.806784,  3.969700 )     1.40786794
  WF centre and spread    9  (  2.806286,  2.807208,  3.969901 )     1.32230267
  WF centre and spread   10  (  2.806939,  2.806487, -0.000693 )     1.38992173
  WF centre and spread   11  (  2.806375,  2.807585,  0.000240 )     1.38781395
  WF centre and spread   12  (  2.806146,  2.806927,  0.000194 )     1.31576836
  WF centre and spread   13  ( -0.180118,  0.266604,  0.103113 )    23.18350417
  WF centre and spread   14  ( -0.222527, -0.335015,  0.245632 )    20.19994899
  WF centre and spread   15  ( -0.578306,  0.574195,  4.534206 )    30.94911498
  WF centre and spread   16  ( -0.128106,  0.104195,  3.865066 )    22.86560771
  WF centre and spread   17  (  2.795654,  3.118558,  3.602166 )    23.77251317
  WF centre and spread   18  (  2.757244,  3.105434,  3.989394 )    24.09378806
  WF centre and spread   19  (  2.656584,  2.906833,  0.041046 )    25.11819912
  WF centre and spread   20  (  2.433066,  2.841333,  0.407482 )    25.09429639
  WF centre and spread   21  (  1.404031,  4.210508,  0.240960 )     1.07501374
  WF centre and spread   22  (  1.410484,  4.219727,  0.215821 )     1.35859764
  WF centre and spread   23  (  1.392614,  4.200585,  0.213793 )     1.37644040
  WF centre and spread   24  (  1.403187,  1.403411, -0.248589 )     1.07321171
  WF centre and spread   25  (  1.408118,  1.408001, -0.210916 )     1.34160860
  WF centre and spread   26  (  1.406696,  1.410755, -0.211177 )     1.35702365
  WF centre and spread   27  (  4.209921,  1.403404,  4.217961 )     1.06697136
  WF centre and spread   28  (  4.207937,  1.400544,  4.182602 )     1.33848827
  WF centre and spread   29  (  4.214949,  1.411490,  4.180305 )     1.34259930
  WF centre and spread   30  (  4.210446,  4.210580,  3.724211 )     1.07712116
  WF centre and spread   31  (  4.209223,  4.197397,  3.756647 )     1.33160038
  WF centre and spread   32  (  4.197870,  4.209486,  3.757632 )     1.33083033
  WF centre and spread   33  (  4.210376,  1.403975, -0.246576 )     1.07699141
  WF centre and spread   34  (  4.209624,  1.409204, -0.211143 )     1.33905552
  WF centre and spread   35  (  4.206232,  1.402084, -0.211906 )     1.36611949
  WF centre and spread   36  (  4.210449,  4.210716,  0.242588 )     1.06589056
  WF centre and spread   37  (  4.202230,  4.200714,  0.214656 )     1.34469897
  WF centre and spread   38  (  4.202408,  4.200536,  0.213355 )     1.36590804
  WF centre and spread   39  (  1.403455,  4.210477,  3.722857 )     1.06739954
  WF centre and spread   40  (  1.405956,  4.211323,  3.757490 )     1.30561778
  WF centre and spread   41  (  1.405715,  4.208329,  3.759031 )     1.31737584
  WF centre and spread   42  (  1.403419,  1.403716,  4.217743 )     1.07916158
  WF centre and spread   43  (  1.406256,  1.414074,  4.181296 )     1.33151518
  WF centre and spread   44  (  1.411349,  1.401612,  4.179183 )     1.32510718
  WF centre and spread   45  ( -0.002668,  0.273676,  2.023987 )     1.73336074
  WF centre and spread   46  ( -0.000532,  0.306338,  1.984228 )     1.04611577
  WF centre and spread   47  ( -0.001276,  0.362864,  1.984668 )     1.08017971
  WF centre and spread   48  ( -0.004760, -0.263012,  5.909625 )     1.72466575
  WF centre and spread   49  (  0.001382, -0.306201,  5.954704 )     1.04242777
  WF centre and spread   50  ( -0.000573, -0.366382,  5.954766 )     1.07368992
  WF centre and spread   51  (  2.803380,  3.069600,  5.941959 )     1.71739776
  WF centre and spread   52  (  2.809263,  3.113334,  5.954608 )     1.04546636
  WF centre and spread   53  (  2.806539,  3.172615,  5.954578 )     1.07891704
  WF centre and spread   54  (  2.804406,  2.551380,  1.988478 )     1.69072112
  WF centre and spread   55  (  2.805012,  2.499784,  1.985063 )     1.04968743
  WF centre and spread   56  (  2.805950,  2.437761,  1.984503 )     1.08464629
  Sum of centres and spreads (110.550282,113.643203,135.871819 )   257.20945504

    600    -0.813E-02     3.8030880201      257.2094550434      55.31  <-- CONV
        O_D=      3.6125970 O_OD=     98.7371042 O_TOT=    257.2094550 <-- SPRD
 Delta: O_D= -0.5362001E-02 O_OD= -0.2769532E-02 O_TOT= -0.8131532E-02 <-- DLTA
 ------------------------------------------------------------------------------
 Cycle:    800
  WF centre and spread    1  ( -0.000208,  0.002590,  0.001841 )     1.40864517
  WF centre and spread    2  (  0.000440,  0.001626,  0.000419 )     1.40689238
  WF centre and spread    3  ( -0.000919,  0.000445,  0.000403 )     1.32138463
  WF centre and spread    4  (  0.000891, -0.000071,  3.970948 )     1.37757373
  WF centre and spread    5  ( -0.000482, -0.000674,  3.971223 )     1.38971511
  WF centre and spread    6  ( -0.000995,  0.000947,  3.970457 )     1.32364837
  WF centre and spread    7  (  2.805906,  2.806362,  3.969433 )     1.41327149
  WF centre and spread    8  (  2.807487,  2.806790,  3.969608 )     1.39821594
  WF centre and spread    9  (  2.806264,  2.807230,  3.969876 )     1.32293557
  WF centre and spread   10  (  2.806933,  2.806533, -0.000568 )     1.38085692
  WF centre and spread   11  (  2.806549,  2.807509,  0.000163 )     1.37916303
  WF centre and spread   12  (  2.806147,  2.806930,  0.000233 )     1.31620563
  WF centre and spread   13  ( -0.174599,  0.261214,  0.100624 )    22.84991391
  WF centre and spread   14  ( -0.213013, -0.321068,  0.237035 )    19.10703643
  WF centre and spread   15  ( -0.666536,  0.621474,  4.593639 )    31.03155947
  WF centre and spread   16  ( -0.151041,  0.073996,  3.867508 )    22.44642035
  WF centre and spread   17  (  2.812080,  3.179218,  3.584430 )    23.84622532
  WF centre and spread   18  (  2.745789,  3.104334,  4.001212 )    24.23569344
  WF centre and spread   19  (  2.664455,  2.967762,  0.051641 )    25.08484747
  WF centre and spread   20  (  2.399629,  2.858119,  0.406796 )    24.56135306
  WF centre and spread   21  (  1.404026,  4.210487,  0.240784 )     1.07472723
  WF centre and spread   22  (  1.411332,  4.218963,  0.215812 )     1.34957213
  WF centre and spread   23  (  1.393417,  4.199799,  0.213844 )     1.36685898
  WF centre and spread   24  (  1.403206,  1.403455, -0.248351 )     1.07178764
  WF centre and spread   25  (  1.408881,  1.409158, -0.211076 )     1.33619099
  WF centre and spread   26  (  1.407787,  1.412035, -0.211284 )     1.34790443
  WF centre and spread   27  (  4.209916,  1.403375,  4.217553 )     1.06557547
  WF centre and spread   28  (  4.207251,  1.401162,  4.182520 )     1.32642818
  WF centre and spread   29  (  4.214081,  1.411913,  4.180429 )     1.33327339
  WF centre and spread   30  (  4.210497,  4.210573,  3.725303 )     1.07601263
  WF centre and spread   31  (  4.208288,  4.196947,  3.756830 )     1.32167333
  WF centre and spread   32  (  4.197297,  4.208259,  3.757793 )     1.32259903
  WF centre and spread   33  (  4.210380,  1.403997, -0.246625 )     1.07644645
  WF centre and spread   34  (  4.209141,  1.409627, -0.211294 )     1.33399756
  WF centre and spread   35  (  4.205520,  1.402610, -0.211913 )     1.35851653
  WF centre and spread   36  (  4.210410,  4.210690,  0.242504 )     1.06404268
  WF centre and spread   37  (  4.200905,  4.199420,  0.214633 )     1.33179941
  WF centre and spread   38  (  4.201232,  4.199467,  0.213298 )     1.35498059
  WF centre and spread   39  (  1.403454,  4.210480,  3.723455 )     1.06515006
  WF centre and spread   40  (  1.406505,  4.210194,  3.757531 )     1.29449008
  WF centre and spread   41  (  1.406562,  4.207752,  3.758879 )     1.30546640
  WF centre and spread   42  (  1.403381,  1.403755,  4.217697 )     1.07947537
  WF centre and spread   43  (  1.407713,  1.414665,  4.181462 )     1.32022615
  WF centre and spread   44  (  1.411745,  1.402310,  4.179436 )     1.31671686
  WF centre and spread   45  ( -0.002249,  0.273163,  2.025657 )     1.69778416
  WF centre and spread   46  ( -0.000503,  0.306166,  1.984262 )     1.04572927
  WF centre and spread   47  ( -0.001238,  0.362694,  1.984645 )     1.07947056
  WF centre and spread   48  ( -0.004482, -0.263367,  5.907214 )     1.69334639
  WF centre and spread   49  (  0.001609, -0.306026,  5.954721 )     1.04151843
  WF centre and spread   50  ( -0.000539, -0.366154,  5.954772 )     1.07264718
  WF centre and spread   51  (  2.803439,  3.070446,  5.944680 )     1.68714560
  WF centre and spread   52  (  2.809424,  3.113119,  5.954632 )     1.04534186
  WF centre and spread   53  (  2.806572,  3.172403,  5.954639 )     1.07792594
  WF centre and spread   54  (  2.804858,  2.551567,  1.985258 )     1.65505042
  WF centre and spread   55  (  2.805218,  2.499801,  1.985099 )     1.04904852
  WF centre and spread   56  (  2.806050,  2.437918,  1.984499 )     1.08354965
  Sum of centres and spreads (110.435863,113.804085,135.926220 )   254.72402699

    800    -0.408E-01     6.0439513320      254.7240269931      73.57  <-- CONV
        O_D=      3.4483195 O_OD=     96.4159537 O_TOT=    254.7240270 <-- SPRD
 Delta: O_D= -0.3758323E-01 O_OD= -0.3250667E-02 O_TOT= -0.4083389E-01 <-- DLTA
 ------------------------------------------------------------------------------
 Cycle:   1000
  WF centre and spread    1  ( -0.000123,  0.002478,  0.001677 )     1.40205429
  WF centre and spread    2  (  0.000447,  0.001523,  0.000364 )     1.40086639
  WF centre and spread    3  ( -0.000836,  0.000453,  0.000401 )     1.32175232
  WF centre and spread    4  (  0.000839, -0.000106,  3.970825 )     1.37260944
  WF centre and spread    5  ( -0.000402, -0.000718,  3.971028 )     1.38334156
  WF centre and spread    6  ( -0.000925,  0.000968,  3.970425 )     1.32402327
  WF centre and spread    7  (  2.805917,  2.806353,  3.969449 )     1.40664326
  WF centre and spread    8  (  2.807457,  2.806782,  3.969544 )     1.39183814
  WF centre and spread    9  (  2.806324,  2.807261,  3.969840 )     1.32309579
  WF centre and spread   10  (  2.806913,  2.806555, -0.000507 )     1.37529560
  WF centre and spread   11  (  2.806669,  2.807437,  0.000108 )     1.37391491
  WF centre and spread   12  (  2.806220,  2.806942,  0.000245 )     1.31644332
  WF centre and spread   13  ( -0.165694,  0.253686,  0.098384 )    22.61040815
  WF centre and spread   14  ( -0.202518, -0.313695,  0.229691 )    18.43665189
  WF centre and spread   15  ( -0.700227,  0.651873,  4.629965 )    31.13813375
  WF centre and spread   16  ( -0.166671,  0.052008,  3.865629 )    22.14586040
  WF centre and spread   17  (  2.830072,  3.213207,  3.555119 )    23.86413865
  WF centre and spread   18  (  2.724619,  3.097201,  4.004775 )    24.35026808
  WF centre and spread   19  (  2.670317,  2.980353,  0.057284 )    25.07006242
  WF centre and spread   20  (  2.384271,  2.865425,  0.405118 )    24.30624966
  WF centre and spread   21  (  1.404023,  4.210474,  0.240619 )     1.07460326
  WF centre and spread   22  (  1.412063,  4.218201,  0.215783 )     1.34509064
  WF centre and spread   23  (  1.394228,  4.199161,  0.213886 )     1.36093638
  WF centre and spread   24  (  1.403212,  1.403486, -0.248198 )     1.07072374
  WF centre and spread   25  (  1.409519,  1.410171, -0.211241 )     1.33245328
  WF centre and spread   26  (  1.408763,  1.413012, -0.211358 )     1.34204814
  WF centre and spread   27  (  4.209930,  1.403364,  4.217262 )     1.06455396
  WF centre and spread   28  (  4.206761,  1.401671,  4.182461 )     1.31841276
  WF centre and spread   29  (  4.213370,  1.412220,  4.180524 )     1.32675968
  WF centre and spread   30  (  4.210528,  4.210575,  3.726075 )     1.07551446
  WF centre and spread   31  (  4.207570,  4.196600,  3.756918 )     1.31541022
  WF centre and spread   32  (  4.196831,  4.207343,  3.757875 )     1.31714693
  WF centre and spread   33  (  4.210386,  1.404010, -0.246702 )     1.07615549
  WF centre and spread   34  (  4.208738,  1.409869, -0.211388 )     1.33018790
  WF centre and spread   35  (  4.205020,  1.403122, -0.211916 )     1.35310622
  WF centre and spread   36  (  4.210380,  4.210674,  0.242403 )     1.06284075
  WF centre and spread   37  (  4.199866,  4.198366,  0.214644 )     1.32464718
  WF centre and spread   38  (  4.200298,  4.198661,  0.213315 )     1.34839312
  WF centre and spread   39  (  1.403460,  4.210484,  3.723853 )     1.06364063
  WF centre and spread   40  (  1.406997,  4.209363,  3.757509 )     1.28763230
  WF centre and spread   41  (  1.407259,  4.207251,  3.758740 )     1.29753497
  WF centre and spread   42  (  1.403361,  1.403770,  4.217664 )     1.07977845
  WF centre and spread   43  (  1.408744,  1.415128,  4.181575 )     1.31276731
  WF centre and spread   44  (  1.412038,  1.402968,  4.179600 )     1.31116332
  WF centre and spread   45  ( -0.001922,  0.272832,  2.026846 )     1.67511252
  WF centre and spread   46  ( -0.000514,  0.306017,  1.984284 )     1.04557085
  WF centre and spread   47  ( -0.001194,  0.362566,  1.984628 )     1.07895127
  WF centre and spread   48  ( -0.004211, -0.263685,  5.905501 )     1.67282882
  WF centre and spread   49  (  0.001761, -0.305904,  5.954738 )     1.04084562
  WF centre and spread   50  ( -0.000494, -0.366002,  5.954771 )     1.07193696
  WF centre and spread   51  (  2.803606,  3.070986,  5.946489 )     1.66616677
  WF centre and spread   52  (  2.809479,  3.112998,  5.954655 )     1.04522449
  WF centre and spread   53  (  2.806624,  3.172250,  5.954676 )     1.07725643
  WF centre and spread   54  (  2.805170,  2.551520,  1.983104 )     1.63090081
  WF centre and spread   55  (  2.805363,  2.499827,  1.985122 )     1.04866510
  WF centre and spread   56  (  2.806130,  2.438036,  1.984493 )     1.08280002
  Sum of centres and spreads (110.395813,113.857371,135.928571 )   253.24141202

   1000    -0.308E-01     3.1213529704      253.2414120153      91.82  <-- CONV
        O_D=      3.3158391 O_OD=     95.0658191 O_TOT=    253.2414120 <-- SPRD
 Delta: O_D=  0.1277207E-01 O_OD= -0.4355113E-01 O_TOT= -0.3077906E-01 <-- DLTA
 ------------------------------------------------------------------------------
 Cycle:   1200
  WF centre and spread    1  ( -0.000052,  0.002367,  0.001529 )     1.39648742
  WF centre and spread    2  (  0.000454,  0.001427,  0.000309 )     1.39579534
  WF centre and spread    3  ( -0.000813,  0.000449,  0.000396 )     1.32250493
  WF centre and spread    4  (  0.000794, -0.000128,  3.970703 )     1.36867980
  WF centre and spread    5  ( -0.000329, -0.000742,  3.970856 )     1.37826769
  WF centre and spread    6  ( -0.000910,  0.000971,  3.970395 )     1.32476533
  WF centre and spread    7  (  2.805932,  2.806346,  3.969459 )     1.40107356
  WF centre and spread    8  (  2.807433,  2.806767,  3.969494 )     1.38637872
  WF centre and spread    9  (  2.806328,  2.807286,  3.969799 )     1.32374638
  WF centre and spread   10  (  2.806889,  2.806578, -0.000469 )     1.37117146
  WF centre and spread   11  (  2.806779,  2.807374,  0.000051 )     1.36989326
  WF centre and spread   12  (  2.806248,  2.806944,  0.000254 )     1.31701211
  WF centre and spread   13  ( -0.157962,  0.244244,  0.093190 )    22.43340679
  WF centre and spread   14  ( -0.194589, -0.306766,  0.222356 )    17.94003782
  WF centre and spread   15  ( -0.751903,  0.667773,  4.660352 )    31.19516244
  WF centre and spread   16  ( -0.179299,  0.030604,  3.860756 )    21.89592590
  WF centre and spread   17  (  2.843794,  3.271377,  3.530644 )    23.96474508
  WF centre and spread   18  (  2.714213,  3.086283,  4.004650 )    24.48968510
  WF centre and spread   19  (  2.698168,  3.010465,  0.055504 )    25.08153081
  WF centre and spread   20  (  2.367315,  2.872752,  0.401184 )    24.22174008
  WF centre and spread   21  (  1.404019,  4.210469,  0.240447 )     1.07475134
  WF centre and spread   22  (  1.412773,  4.217413,  0.215759 )     1.34258807
  WF centre and spread   23  (  1.395069,  4.198543,  0.213935 )     1.35687553
  WF centre and spread   24  (  1.403219,  1.403509, -0.248053 )     1.06984225
  WF centre and spread   25  (  1.410168,  1.411179, -0.211398 )     1.33028337
  WF centre and spread   26  (  1.409764,  1.413946, -0.211429 )     1.33765202
  WF centre and spread   27  (  4.209950,  1.403356,  4.216993 )     1.06365830
  WF centre and spread   28  (  4.206280,  1.402188,  4.182422 )     1.31203879
  WF centre and spread   29  (  4.212627,  1.412529,  4.180637 )     1.32202352
  WF centre and spread   30  (  4.210555,  4.210577,  3.726767 )     1.07531094
  WF centre and spread   31  (  4.206850,  4.196235,  3.756966 )     1.31022417
  WF centre and spread   32  (  4.196330,  4.206426,  3.757923 )     1.31277038
  WF centre and spread   33  (  4.210395,  1.404021, -0.246782 )     1.07610903
  WF centre and spread   34  (  4.208337,  1.410135, -0.211490 )     1.32782020
  WF centre and spread   35  (  4.204506,  1.403657, -0.211944 )     1.34922100
  WF centre and spread   36  (  4.210352,  4.210659,  0.242291 )     1.06183037
  WF centre and spread   37  (  4.198791,  4.197288,  0.214634 )     1.31990720
  WF centre and spread   38  (  4.199340,  4.197861,  0.213341 )     1.34381554
  WF centre and spread   39  (  1.403466,  4.210493,  3.724189 )     1.06242440
  WF centre and spread   40  (  1.407523,  4.208549,  3.757447 )     1.28290332
  WF centre and spread   41  (  1.408003,  4.206710,  3.758586 )     1.29138783
  WF centre and spread   42  (  1.403341,  1.403777,  4.217616 )     1.08016916
  WF centre and spread   43  (  1.409751,  1.415572,  4.181691 )     1.30715686
  WF centre and spread   44  (  1.412276,  1.403649,  4.179743 )     1.30744562
  WF centre and spread   45  ( -0.001716,  0.272577,  2.027761 )     1.65806528
  WF centre and spread   46  ( -0.000542,  0.305883,  1.984295 )     1.04559833
  WF centre and spread   47  ( -0.001138,  0.362450,  1.984609 )     1.07862093
  WF centre and spread   48  ( -0.004013, -0.264003,  5.903957 )     1.65659192
  WF centre and spread   49  (  0.001897, -0.305802,  5.954764 )     1.04045149
  WF centre and spread   50  ( -0.000428, -0.365870,  5.954766 )     1.07139437
  WF centre and spread   51  (  2.803745,  3.071498,  5.947928 )     1.65017261
  WF centre and spread   52  (  2.809504,  3.112900,  5.954671 )     1.04516658
  WF centre and spread   53  (  2.806687,  3.172106,  5.954694 )     1.07683204
  WF centre and spread   54  (  2.805422,  2.551416,  1.981291 )     1.61314729
  WF centre and spread   55  (  2.805478,  2.499852,  1.985132 )     1.04846514
  WF centre and spread   56  (  2.806207,  2.438134,  1.984489 )     1.08226899
  Sum of centres and spreads (110.363277,113.932251,135.910061 )   252.36299421

   1200    -0.601E-01     8.0314856225      252.3629942087     110.01  <-- CONV
        O_D=      3.2904530 O_OD=     94.2127874 O_TOT=    252.3629942 <-- SPRD
 Delta: O_D= -0.4242581E-01 O_OD= -0.1771225E-01 O_TOT= -0.6013805E-01 <-- DLTA
 ------------------------------------------------------------------------------
 Cycle:   1400
  WF centre and spread    1  (  0.000006,  0.002274,  0.001417 )     1.39211491
  WF centre and spread    2  (  0.000459,  0.001336,  0.000265 )     1.39171986
  WF centre and spread    3  ( -0.000780,  0.000444,  0.000389 )     1.32275662
  WF centre and spread    4  (  0.000762, -0.000138,  3.970608 )     1.36583752
  WF centre and spread    5  ( -0.000282, -0.000757,  3.970734 )     1.37414094
  WF centre and spread    6  ( -0.000879,  0.000972,  3.970367 )     1.32497648
  WF centre and spread    7  (  2.805960,  2.806348,  3.969458 )     1.39696378
  WF centre and spread    8  (  2.807421,  2.806747,  3.969456 )     1.38224488
  WF centre and spread    9  (  2.806349,  2.807321,  3.969756 )     1.32387178
  WF centre and spread   10  (  2.806863,  2.806613, -0.000445 )     1.36839590
  WF centre and spread   11  (  2.806872,  2.807326,  0.000001 )     1.36711389
  WF centre and spread   12  (  2.806294,  2.806946,  0.000252 )     1.31727778
  WF centre and spread   13  ( -0.149018,  0.235409,  0.087453 )    22.25146623
  WF centre and spread   14  ( -0.189165, -0.302000,  0.214957 )    17.57090266
  WF centre and spread   15  ( -0.787687,  0.689681,  4.682514 )    31.27369597
  WF centre and spread   16  ( -0.189373,  0.008747,  3.850798 )    21.69338361
  WF centre and spread   17  (  2.859534,  3.323855,  3.479112 )    23.97074875
  WF centre and spread   18  (  2.679587,  3.074867,  4.001753 )    24.60221880
  WF centre and spread   19  (  2.709164,  3.058941,  0.032164 )    25.07864134
  WF centre and spread   20  (  2.359340,  2.878154,  0.396208 )    24.22017163
  WF centre and spread   21  (  1.404013,  4.210474,  0.240287 )     1.07501249
  WF centre and spread   22  (  1.413397,  4.216691,  0.215755 )     1.34085112
  WF centre and spread   23  (  1.395825,  4.197991,  0.213988 )     1.35364536
  WF centre and spread   24  (  1.403225,  1.403528, -0.247908 )     1.06916607
  WF centre and spread   25  (  1.410727,  1.412076, -0.211548 )     1.32940119
  WF centre and spread   26  (  1.410672,  1.414718, -0.211501 )     1.33448071
  WF centre and spread   27  (  4.209972,  1.403355,  4.216748 )     1.06293070
  WF centre and spread   28  (  4.205887,  1.402642,  4.182378 )     1.30668330
  WF centre and spread   29  (  4.211984,  1.412745,  4.180715 )     1.31775257
  WF centre and spread   30  (  4.210569,  4.210582,  3.727317 )     1.07526262
  WF centre and spread   31  (  4.206225,  4.195858,  3.756967 )     1.30637950
  WF centre and spread   32  (  4.195806,  4.205644,  3.757937 )     1.30908855
  WF centre and spread   33  (  4.210408,  1.404033, -0.246856 )     1.07628001
  WF centre and spread   34  (  4.207956,  1.410385, -0.211595 )     1.32599246
  WF centre and spread   35  (  4.204037,  1.404141, -0.211995 )     1.34636980
  WF centre and spread   36  (  4.210323,  4.210643,  0.242210 )     1.06103016
  WF centre and spread   37  (  4.197812,  4.196330,  0.214608 )     1.31699922
  WF centre and spread   38  (  4.198459,  4.197146,  0.213363 )     1.34056802
  WF centre and spread   39  (  1.403472,  4.210502,  3.724417 )     1.06152893
  WF centre and spread   40  (  1.408004,  4.207807,  3.757375 )     1.27955340
  WF centre and spread   41  (  1.408671,  4.206174,  3.758459 )     1.28642811
  WF centre and spread   42  (  1.403329,  1.403776,  4.217571 )     1.08051485
  WF centre and spread   43  (  1.410618,  1.415927,  4.181791 )     1.30362048
  WF centre and spread   44  (  1.412456,  1.404263,  4.179816 )     1.30545325
  WF centre and spread   45  ( -0.001537,  0.272392,  2.028561 )     1.64478340
  WF centre and spread   46  ( -0.000558,  0.305774,  1.984300 )     1.04573621
  WF centre and spread   47  ( -0.001085,  0.362350,  1.984590 )     1.07831010
  WF centre and spread   48  ( -0.003844, -0.264307,  5.902572 )     1.64404257
  WF centre and spread   49  (  0.001986, -0.305718,  5.954780 )     1.04006319
  WF centre and spread   50  ( -0.000361, -0.365759,  5.954758 )     1.07103484
  WF centre and spread   51  (  2.803917,  3.072036,  5.948996 )     1.63873831
  WF centre and spread   52  (  2.809496,  3.112830,  5.954673 )     1.04503000
  WF centre and spread   53  (  2.806748,  3.171991,  5.954706 )     1.07637867
  WF centre and spread   54  (  2.805685,  2.551373,  1.979892 )     1.60037915
  WF centre and spread   55  (  2.805580,  2.499859,  1.985138 )     1.04829429
  WF centre and spread   56  (  2.806277,  2.438195,  1.984489 )     1.08188581
  Sum of centres and spreads (110.317582,114.021532,135.824971 )   251.66831275

   1400    -0.622E-02     6.0973854483      251.6683127534     128.66  <-- CONV
        O_D=      3.3843360 O_OD=     93.4242229 O_TOT=    251.6683128 <-- SPRD
 Delta: O_D= -0.5066943E-03 O_OD= -0.5710426E-02 O_TOT= -0.6217121E-02 <-- DLTA
 ------------------------------------------------------------------------------
 Cycle:   1600
  WF centre and spread    1  (  0.000058,  0.002180,  0.001321 )     1.38795772
  WF centre and spread    2  (  0.000459,  0.001238,  0.000221 )     1.38793723
  WF centre and spread    3  ( -0.000737,  0.000433,  0.000382 )     1.32317432
  WF centre and spread    4  (  0.000741, -0.000146,  3.970518 )     1.36322612
  WF centre and spread    5  ( -0.000221, -0.000761,  3.970600 )     1.37054114
  WF centre and spread    6  ( -0.000833,  0.000968,  3.970341 )     1.32522074
  WF centre and spread    7  (  2.805976,  2.806335,  3.969476 )     1.39260177
  WF centre and spread    8  (  2.807412,  2.806713,  3.969438 )     1.37797339
  WF centre and spread    9  (  2.806382,  2.807352,  3.969713 )     1.32396627
  WF centre and spread   10  (  2.806839,  2.806634, -0.000396 )     1.36554120
  WF centre and spread   11  (  2.806960,  2.807256, -0.000044 )     1.36438210
  WF centre and spread   12  (  2.806360,  2.806945,  0.000244 )     1.31759375
  WF centre and spread   13  ( -0.140214,  0.225280,  0.081766 )    22.08840742
  WF centre and spread   14  ( -0.186068, -0.296269,  0.206790 )    17.19801486
  WF centre and spread   15  ( -0.832202,  0.699973,  4.706172 )    31.40295633
  WF centre and spread   16  ( -0.201425, -0.021171,  3.840527 )    21.36005735
  WF centre and spread   17  (  2.872167,  3.369296,  3.449747 )    23.97809881
  WF centre and spread   18  (  2.670326,  3.071002,  3.993928 )    24.59338067
  WF centre and spread   19  (  2.721399,  3.078548,  0.043034 )    25.12830149
  WF centre and spread   20  (  2.344891,  2.892632,  0.388955 )    24.24697986
  WF centre and spread   21  (  1.404001,  4.210475,  0.240047 )     1.07533893
  WF centre and spread   22  (  1.414027,  4.215834,  0.215727 )     1.33921842
  WF centre and spread   23  (  1.396664,  4.197429,  0.214010 )     1.35078276
  WF centre and spread   24  (  1.403231,  1.403547, -0.247789 )     1.06830183
  WF centre and spread   25  (  1.411361,  1.413049, -0.211684 )     1.32833025
  WF centre and spread   26  (  1.411660,  1.415595, -0.211592 )     1.33176464
  WF centre and spread   27  (  4.209996,  1.403357,  4.216469 )     1.06213625
  WF centre and spread   28  (  4.205547,  1.403135,  4.182362 )     1.30248549
  WF centre and spread   29  (  4.211316,  1.413012,  4.180817 )     1.31493912
  WF centre and spread   30  (  4.210583,  4.210588,  3.727866 )     1.07525612
  WF centre and spread   31  (  4.205554,  4.195377,  3.756980 )     1.30230876
  WF centre and spread   32  (  4.195206,  4.204744,  3.757940 )     1.30554666
[...]
  WF centre and spread   13  ( -0.037433, -0.022272, -0.146112 )    17.10077764
  WF centre and spread   14  ( -0.027926, -0.057073,  0.017307 )    11.08943893
  WF centre and spread   15  ( -2.040740,  0.607142,  4.581014 )    33.96297657
  WF centre and spread   16  ( -0.185983, -0.192095,  3.998838 )    14.36603984
  WF centre and spread   17  (  2.686412,  4.777172,  2.076276 )    19.66589807
  WF centre and spread   18  (  3.009487,  2.597845,  4.483780 )    25.97637432
  WF centre and spread   19  (  2.859734,  2.821820,  0.080341 )    24.57731625
  WF centre and spread   20  (  1.381397,  3.263939,  0.298505 )    24.73797826
  WF centre and spread   21  (  1.403635,  4.210409,  0.240151 )     1.06322215
  WF centre and spread   22  (  1.434837,  4.178645,  0.214111 )     1.30937478
  WF centre and spread   23  (  1.433329,  4.169119,  0.213715 )     1.30936219
  WF centre and spread   24  (  1.403496,  1.403589, -0.243429 )     1.04813008
  WF centre and spread   25  (  1.429172,  1.438289, -0.213161 )     1.32362848
  WF centre and spread   26  (  1.434570,  1.436460, -0.212974 )     1.33228499
  WF centre and spread   27  (  4.210378,  1.403536,  4.212070 )     1.05238866
  WF centre and spread   28  (  4.213601,  1.407827,  4.182902 )     1.25866819
  WF centre and spread   29  (  4.198982,  1.419748,  4.182538 )     1.25757849
  WF centre and spread   30  (  4.210485,  4.210676,  3.727700 )     1.06534252
  WF centre and spread   31  (  4.188596,  4.180620,  3.756694 )     1.27005437
  WF centre and spread   32  (  4.180566,  4.172902,  3.758144 )     1.27558577
  WF centre and spread   33  (  4.210546,  1.403784, -0.241968 )     1.06481289
  WF centre and spread   34  (  4.179018,  1.435230, -0.213406 )     1.32683958
  WF centre and spread   35  (  4.178133,  1.438517, -0.213712 )     1.33057487
  WF centre and spread   36  (  4.209834,  4.210824,  0.240467 )     1.04424630
  WF centre and spread   37  (  4.181175,  4.172134,  0.213583 )     1.32467557
  WF centre and spread   38  (  4.176596,  4.169044,  0.213940 )     1.32428679
  WF centre and spread   39  (  1.403650,  4.210816,  3.723360 )     1.05296469
  WF centre and spread   40  (  1.403543,  4.199254,  3.756587 )     1.24546564
  WF centre and spread   41  (  1.418046,  4.190413,  3.757513 )     1.23842358
  WF centre and spread   42  (  1.403413,  1.403453,  4.214783 )     1.07063978
  WF centre and spread   43  (  1.424748,  1.424455,  4.183098 )     1.29371800
  WF centre and spread   44  (  1.420303,  1.425956,  4.182174 )     1.29474249
  WF centre and spread   45  ( -0.001334,  0.273551,  2.059779 )     1.61290706
  WF centre and spread   46  ( -0.001018,  0.304097,  1.984916 )     1.03856224
  WF centre and spread   47  (  0.000580,  0.360257,  1.984642 )     1.07435775
  WF centre and spread   48  ( -0.001890, -0.270181,  5.850155 )     1.62503853
  WF centre and spread   49  (  0.000458, -0.304493,  5.954500 )     1.03670874
  WF centre and spread   50  (  0.000670, -0.366055,  5.954441 )     1.06864261
  WF centre and spread   51  (  2.806974,  3.077246,  5.942740 )     1.39810192
  WF centre and spread   52  (  2.806933,  3.111544,  5.954593 )     1.03899116
  WF centre and spread   53  (  2.808023,  3.169084,  5.954548 )     1.07020854
  WF centre and spread   54  (  2.807249,  2.538712,  1.998877 )     1.37630532
  WF centre and spread   55  (  2.807743,  2.499731,  1.984765 )     1.03547920
  WF centre and spread   56  (  2.807235,  2.438210,  1.984952 )     1.07345045
  Sum of centres and spreads (108.677233,114.784589,134.452165 )   231.22449248

   9600    -0.521E-02     2.6993130677      231.2244924795     880.95  <-- CONV
        O_D=      1.5578444 O_OD=     74.8068942 O_TOT=    231.2244925 <-- SPRD
 Delta: O_D= -0.7432389E-03 O_OD= -0.4463414E-02 O_TOT= -0.5206653E-02 <-- DLTA
 ------------------------------------------------------------------------------
 Cycle:   9800
  WF centre and spread    1  (  0.000323,  0.000461,  0.000223 )     1.35648787
  WF centre and spread    2  (  0.000133, -0.000213, -0.000321 )     1.35793698
  WF centre and spread    3  ( -0.000498, -0.000002,  0.000319 )     1.32318063
  WF centre and spread    4  (  0.000339, -0.000101,  3.969808 )     1.35376034
  WF centre and spread    5  (  0.000054, -0.000278,  3.969401 )     1.35281885
  WF centre and spread    6  ( -0.000635,  0.000095,  3.969675 )     1.32233376
  WF centre and spread    7  (  2.806493,  2.806831,  3.969612 )     1.35512572
  WF centre and spread    8  (  2.807340,  2.807049,  3.969883 )     1.35371179
  WF centre and spread    9  (  2.806067,  2.806666,  3.969771 )     1.32013239
  WF centre and spread   10  (  2.806673,  2.806640,  0.000144 )     1.35413946
  WF centre and spread   11  (  2.807115,  2.806853, -0.000337 )     1.35465608
  WF centre and spread   12  (  2.806631,  2.806677,  0.000284 )     1.31817307
  WF centre and spread   13  ( -0.036911, -0.023948, -0.143415 )    17.10475575
  WF centre and spread   14  ( -0.024201, -0.053665,  0.016449 )    11.06829939
  WF centre and spread   15  ( -2.058696,  0.602232,  4.573205 )    33.92375963
  WF centre and spread   16  ( -0.184925, -0.192628,  3.998459 )    14.37566258
  WF centre and spread   17  (  2.679897,  4.782087,  2.075499 )    19.65995939
  WF centre and spread   18  (  3.022644,  2.589790,  4.499618 )    25.99241538
  WF centre and spread   19  (  2.861567,  2.820770,  0.080227 )    24.56880220
  WF centre and spread   20  (  1.360510,  3.269727,  0.309644 )    24.67706012
  WF centre and spread   21  (  1.403626,  4.210409,  0.240170 )     1.06297426
  WF centre and spread   22  (  1.435001,  4.178204,  0.214071 )     1.30989916
  WF centre and spread   23  (  1.433666,  4.168888,  0.213730 )     1.31050097
  WF centre and spread   24  (  1.403500,  1.403583, -0.243356 )     1.04816126
  WF centre and spread   25  (  1.429358,  1.438563, -0.213128 )     1.32352830
  WF centre and spread   26  (  1.434850,  1.436770, -0.212977 )     1.33277380
  WF centre and spread   27  (  4.210380,  1.403531,  4.212039 )     1.05217557
  WF centre and spread   28  (  4.213837,  1.407603,  4.182902 )     1.25825609
  WF centre and spread   29  (  4.199042,  1.419844,  4.182568 )     1.25746487
  WF centre and spread   30  (  4.210470,  4.210683,  3.727612 )     1.06443702
  WF centre and spread   31  (  4.188650,  4.180664,  3.756675 )     1.26959133
  WF centre and spread   32  (  4.180707,  4.172889,  3.758106 )     1.27480568
  WF centre and spread   33  (  4.210537,  1.403774, -0.241908 )     1.06452786
  WF centre and spread   34  (  4.178694,  1.435522, -0.213388 )     1.32664341
  WF centre and spread   35  (  4.177895,  1.438899, -0.213726 )     1.33135116
  WF centre and spread   36  (  4.209839,  4.210825,  0.240478 )     1.04436693
  WF centre and spread   37  (  4.181231,  4.171981,  0.213596 )     1.32538838
  WF centre and spread   38  (  4.176471,  4.168891,  0.213952 )     1.32534792
  WF centre and spread   39  (  1.403653,  4.210816,  3.723389 )     1.05264966
  WF centre and spread   40  (  1.403397,  4.199324,  3.756598 )     1.24506446
  WF centre and spread   41  (  1.418013,  4.190248,  3.757497 )     1.23894242
  WF centre and spread   42  (  1.403417,  1.403448,  4.214756 )     1.06959135
  WF centre and spread   43  (  1.424610,  1.424403,  4.183090 )     1.29241508
  WF centre and spread   44  (  1.420294,  1.425991,  4.182187 )     1.29381180
  WF centre and spread   45  ( -0.001299,  0.273583,  2.060038 )     1.61240239
  WF centre and spread   46  ( -0.001005,  0.304100,  1.984927 )     1.03820102
  WF centre and spread   47  (  0.000604,  0.360254,  1.984662 )     1.07389483
  WF centre and spread   48  ( -0.001835, -0.270207,  5.850015 )     1.62467780
  WF centre and spread   49  (  0.000416, -0.304488,  5.954498 )     1.03641150
  WF centre and spread   50  (  0.000648, -0.366051,  5.954437 )     1.06851072
  WF centre and spread   51  (  2.807000,  3.077248,  5.942816 )     1.39631976
  WF centre and spread   52  (  2.806943,  3.111530,  5.954593 )     1.03879049
  WF centre and spread   53  (  2.808021,  3.169089,  5.954547 )     1.07026257
  WF centre and spread   54  (  2.807222,  2.538620,  1.998764 )     1.37564983
  WF centre and spread   55  (  2.807708,  2.499741,  1.984767 )     1.03528134
  WF centre and spread   56  (  2.807234,  2.438265,  1.984958 )     1.07319949
  Sum of centres and spreads (108.652715,114.782476,134.472101 )   231.11144185

   9800     0.583E-05     3.9390377674      231.1114418482     899.16  <-- CONV
        O_D=      1.5353367 O_OD=     74.7163513 O_TOT=    231.1114418 <-- SPRD
 Delta: O_D=  0.1074491E-02 O_OD= -0.1068657E-02 O_TOT=  0.5833974E-05 <-- DLTA
 ------------------------------------------------------------------------------
 Cycle:  10000
  WF centre and spread    1  (  0.000327,  0.000449,  0.000202 )     1.35643150
  WF centre and spread    2  (  0.000129, -0.000228, -0.000322 )     1.35784367
  WF centre and spread    3  ( -0.000476, -0.000024,  0.000325 )     1.32317717
  WF centre and spread    4  (  0.000343, -0.000098,  3.969814 )     1.35378412
  WF centre and spread    5  (  0.000046, -0.000275,  3.969406 )     1.35286587
  WF centre and spread    6  ( -0.000621,  0.000089,  3.969665 )     1.32227432
  WF centre and spread    7  (  2.806508,  2.806856,  3.969625 )     1.35515754
  WF centre and spread    8  (  2.807355,  2.807049,  3.969892 )     1.35368837
  WF centre and spread    9  (  2.806056,  2.806637,  3.969768 )     1.32031946
  WF centre and spread   10  (  2.806683,  2.806653,  0.000143 )     1.35418232
  WF centre and spread   11  (  2.807127,  2.806842, -0.000331 )     1.35482342
  WF centre and spread   12  (  2.806630,  2.806674,  0.000310 )     1.31840195
  WF centre and spread   13  ( -0.037099, -0.025029, -0.146480 )    17.06799349
  WF centre and spread   14  ( -0.020891, -0.050339,  0.015641 )    11.04420971
  WF centre and spread   15  ( -2.099146,  0.527161,  4.551993 )    34.10196813
  WF centre and spread   16  ( -0.178774, -0.188225,  4.002465 )    14.41824810
  WF centre and spread   17  (  2.674032,  4.785226,  2.064203 )    19.67960403
  WF centre and spread   18  (  3.021094,  2.582515,  4.518041 )    25.98239948
  WF centre and spread   19  (  2.862318,  2.819012,  0.083636 )    24.57734192
  WF centre and spread   20  (  1.339956,  3.278429,  0.301987 )    24.62310131
  WF centre and spread   21  (  1.403604,  4.210395,  0.240218 )     1.06274325
  WF centre and spread   22  (  1.435178,  4.177749,  0.214061 )     1.31082266
  WF centre and spread   23  (  1.434034,  4.168577,  0.213735 )     1.31215804
  WF centre and spread   24  (  1.403502,  1.403581, -0.243253 )     1.04853879
  WF centre and spread   25  (  1.429610,  1.438789, -0.213097 )     1.32418636
  WF centre and spread   26  (  1.435108,  1.437068, -0.213010 )     1.33371064
  WF centre and spread   27  (  4.210377,  1.403530,  4.212002 )     1.05220900
  WF centre and spread   28  (  4.214310,  1.407182,  4.182921 )     1.25890345
  WF centre and spread   29  (  4.199214,  1.419771,  4.182576 )     1.25738445
  WF centre and spread   30  (  4.210455,  4.210678,  3.727452 )     1.06388092
  WF centre and spread   31  (  4.188803,  4.180801,  3.756645 )     1.26955076
  WF centre and spread   32  (  4.180955,  4.172940,  3.758067 )     1.27436924
  WF centre and spread   33  (  4.210522,  1.403780, -0.241797 )     1.06435366
  WF centre and spread   34  (  4.178325,  1.435797, -0.213369 )     1.32805006
  WF centre and spread   35  (  4.177583,  1.439285, -0.213713 )     1.33234302
  WF centre and spread   36  (  4.209842,  4.210824,  0.240462 )     1.04432831
  WF centre and spread   37  (  4.181242,  4.171798,  0.213582 )     1.32668904
  WF centre and spread   38  (  4.176333,  4.168651,  0.213954 )     1.32661181
  WF centre and spread   39  (  1.403656,  4.210814,  3.723394 )     1.05259264
  WF centre and spread   40  (  1.403029,  4.199539,  3.756594 )     1.24518715
  WF centre and spread   41  (  1.417924,  4.190176,  3.757483 )     1.23895581
  WF centre and spread   42  (  1.403412,  1.403444,  4.214722 )     1.06942643
  WF centre and spread   43  (  1.424506,  1.424375,  4.183093 )     1.29182451
  WF centre and spread   44  (  1.420304,  1.426013,  4.182222 )     1.29261172
  WF centre and spread   45  ( -0.001217,  0.273620,  2.060284 )     1.61384647
  WF centre and spread   46  ( -0.000991,  0.304107,  1.984927 )     1.03857104
  WF centre and spread   47  (  0.000635,  0.360266,  1.984667 )     1.07379676
  WF centre and spread   48  ( -0.001806, -0.270258,  5.849562 )     1.62641331
  WF centre and spread   49  (  0.000411, -0.304475,  5.954498 )     1.03670238
  WF centre and spread   50  (  0.000639, -0.366065,  5.954431 )     1.06870176
  WF centre and spread   51  (  2.807024,  3.077279,  5.942844 )     1.39720731
  WF centre and spread   52  (  2.806936,  3.111505,  5.954606 )     1.03880368
  WF centre and spread   53  (  2.808025,  3.169105,  5.954553 )     1.07027301
  WF centre and spread   54  (  2.807201,  2.538499,  1.998655 )     1.37641228
  WF centre and spread   55  (  2.807641,  2.499721,  1.984762 )     1.03526608
  WF centre and spread   56  (  2.807225,  2.438349,  1.984973 )     1.07303259
  Sum of centres and spreads (108.595148,114.716582,134.453688 )   231.24827426

  10000     0.254E+00    17.9722867815      231.2482742574     917.31  <-- CONV
        O_D=      1.8077748 O_OD=     74.5807456 O_TOT=    231.2482743 <-- SPRD
 Delta: O_D=  0.2516272E+00 O_OD=  0.2237428E-02 O_TOT=  0.2538646E+00 <-- DLTA
 ------------------------------------------------------------------------------
 Final State
  WF centre and spread    1  (  0.000327,  0.000449,  0.000202 )     1.35643150
  WF centre and spread    2  (  0.000129, -0.000228, -0.000322 )     1.35784367
  WF centre and spread    3  ( -0.000476, -0.000024,  0.000325 )     1.32317717
  WF centre and spread    4  (  0.000343, -0.000098,  3.969814 )     1.35378412
  WF centre and spread    5  (  0.000046, -0.000275,  3.969406 )     1.35286587
  WF centre and spread    6  ( -0.000621,  0.000089,  3.969665 )     1.32227432
  WF centre and spread    7  (  2.806508,  2.806856,  3.969625 )     1.35515754
  WF centre and spread    8  (  2.807355,  2.807049,  3.969892 )     1.35368837
  WF centre and spread    9  (  2.806056,  2.806637,  3.969768 )     1.32031946
  WF centre and spread   10  (  2.806683,  2.806653,  0.000143 )     1.35418232
  WF centre and spread   11  (  2.807127,  2.806842, -0.000331 )     1.35482342
  WF centre and spread   12  (  2.806630,  2.806674,  0.000310 )     1.31840195
  WF centre and spread   13  ( -0.037099, -0.025029, -0.146480 )    17.06799349
  WF centre and spread   14  ( -0.020891, -0.050339,  0.015641 )    11.04420971
  WF centre and spread   15  ( -2.099146,  0.527161,  4.551993 )    34.10196813
  WF centre and spread   16  ( -0.178774, -0.188225,  4.002465 )    14.41824810
  WF centre and spread   17  (  2.674032,  4.785226,  2.064203 )    19.67960403
  WF centre and spread   18  (  3.021094,  2.582515,  4.518041 )    25.98239948
  WF centre and spread   19  (  2.862318,  2.819012,  0.083636 )    24.57734192
  WF centre and spread   20  (  1.339956,  3.278429,  0.301987 )    24.62310131
  WF centre and spread   21  (  1.403604,  4.210395,  0.240218 )     1.06274325
  WF centre and spread   22  (  1.435178,  4.177749,  0.214061 )     1.31082266
  WF centre and spread   23  (  1.434034,  4.168577,  0.213735 )     1.31215804
  WF centre and spread   24  (  1.403502,  1.403581, -0.243253 )     1.04853879
  WF centre and spread   25  (  1.429610,  1.438789, -0.213097 )     1.32418636
  WF centre and spread   26  (  1.435108,  1.437068, -0.213010 )     1.33371064
  WF centre and spread   27  (  4.210377,  1.403530,  4.212002 )     1.05220900
  WF centre and spread   28  (  4.214310,  1.407182,  4.182921 )     1.25890345
  WF centre and spread   29  (  4.199214,  1.419771,  4.182576 )     1.25738445
  WF centre and spread   30  (  4.210455,  4.210678,  3.727452 )     1.06388092
  WF centre and spread   31  (  4.188803,  4.180801,  3.756645 )     1.26955076
  WF centre and spread   32  (  4.180955,  4.172940,  3.758067 )     1.27436924
  WF centre and spread   33  (  4.210522,  1.403780, -0.241797 )     1.06435366
  WF centre and spread   34  (  4.178325,  1.435797, -0.213369 )     1.32805006
  WF centre and spread   35  (  4.177583,  1.439285, -0.213713 )     1.33234302
  WF centre and spread   36  (  4.209842,  4.210824,  0.240462 )     1.04432831
  WF centre and spread   37  (  4.181242,  4.171798,  0.213582 )     1.32668904
  WF centre and spread   38  (  4.176333,  4.168651,  0.213954 )     1.32661181
  WF centre and spread   39  (  1.403656,  4.210814,  3.723394 )     1.05259264
  WF centre and spread   40  (  1.403029,  4.199539,  3.756594 )     1.24518715
  WF centre and spread   41  (  1.417924,  4.190176,  3.757483 )     1.23895581
  WF centre and spread   42  (  1.403412,  1.403444,  4.214722 )     1.06942643
  WF centre and spread   43  (  1.424506,  1.424375,  4.183093 )     1.29182451
  WF centre and spread   44  (  1.420304,  1.426013,  4.182222 )     1.29261172
  WF centre and spread   45  ( -0.001217,  0.273620,  2.060284 )     1.61384647
  WF centre and spread   46  ( -0.000991,  0.304107,  1.984927 )     1.03857104
  WF centre and spread   47  (  0.000635,  0.360266,  1.984667 )     1.07379676
  WF centre and spread   48  ( -0.001806, -0.270258,  5.849562 )     1.62641331
  WF centre and spread   49  (  0.000411, -0.304475,  5.954498 )     1.03670238
  WF centre and spread   50  (  0.000639, -0.366065,  5.954431 )     1.06870176
  WF centre and spread   51  (  2.807024,  3.077279,  5.942844 )     1.39720731
  WF centre and spread   52  (  2.806936,  3.111505,  5.954606 )     1.03880368
  WF centre and spread   53  (  2.808025,  3.169105,  5.954553 )     1.07027301
  WF centre and spread   54  (  2.807201,  2.538499,  1.998655 )     1.37641228
  WF centre and spread   55  (  2.807641,  2.499721,  1.984762 )     1.03526608
  WF centre and spread   56  (  2.807225,  2.438349,  1.984973 )     1.07303259
  Sum of centres and spreads (108.595148,114.716582,134.453688 )   231.24827426

         Spreads (Ang^2)       Omega I      =   154.859753858
        ================       Omega D      =     1.807774768
                               Omega OD     =    74.580745631
    Final Spread (Ang^2)       Omega Total  =   231.248274257
 ------------------------------------------------------------------------------

 Writing checkpoint file smo.chk... done

 *---------------------------------------------------------------------------*
 |                               PLOTTING                                    |
 *---------------------------------------------------------------------------*


 Calculating interpolated band-structure

 Time to calculate interpolated band structure       2.105 (sec)

  
  Omega Invariant:   1-s^2 =   154.859753857 (Ang^2)
                   -2log s =  1275.756874274 (Ang^2)
                    acos^2 =   249.216760267 (Ang^2)

 *===========================================================================*
 |                             TIMING INFORMATION                            |
 *===========================================================================*
 |    Tag                                                Ncalls      Time (s)|
 |---------------------------------------------------------------------------|
 |kmesh: get                                        :         1         0.115|
 |overlap: read                                     :         1         4.553|
 |wann: main                                        :         1       917.001|
 |plot: main                                        :         1         6.184|
 *---------------------------------------------------------------------------*
 All done: wannier90 exiting
