
     Program PWSCF v.7.5 starts on 29Nov2025 at 20:38:28 
        Git branch: develop
        Last git commit: 70e07caa2a5fab3dd9374bc01196f67e923fc5ea
        Last git commit date: Mon Aug 18 10:06:47 2025 +0000
        Last git commit subject: Merge branch 'stressed-by-optional-variables' into

     This program is part of the open-source Quantum ESPRESSO suite
     for quantum simulation of materials; please cite
         "P. Giannozzi et al., J. Phys.:Condens. Matter 21 395502 (2009);
         "P. Giannozzi et al., J. Phys.:Condens. Matter 29 465901 (2017);
         "P. Giannozzi et al., J. Chem. Phys. 152 154105 (2020);
          URL http://www.quantum-espresso.org", 
     in publications or presentations arising from this work. More details at
     http://www.quantum-espresso.org/quote

     Parallel version (MPI), running on   128 processors

     MPI processes distributed on     1 nodes
     977048 MiB available memory on the printing compute node when the environment starts

     Waiting for input...
     Reading input from standard input

     Current dimensions of program PWSCF are:
     Max number of different atomic species (ntypx) = 10
     Max number of k-points (npk) =  40000
     Max angular momentum in pseudopotentials (lmaxx) =  4
     file Sr.pz-spn-kjpaw_psl.1.0.0.UPF: wavefunction(s)  4P renormalized
     file Mo.pz-spn-kjpaw_psl.1.0.0.UPF: wavefunction(s)  4S 4D renormalized
     file O.pz-n-kjpaw_psl.1.0.0.UPF: wavefunction(s)  2S 2P renormalized

     Atomic positions and unit cell read from directory:
     ./out/smo.save/

     Found identity + (  0.5000 -0.5000 -0.5000) symmetry
     This is a supercell, fractional translations are disabled

     K-points division:     npool     =     128
     Subspace diagonalization in iterative solution of the eigenvalue problem:
     a serial algorithm will be used

     Message from routine divide_et_impera:
     suboptimal parallelization: some nodes have no k-points

     G-vector sticks info
     --------------------
     sticks:   dense  smooth     PW     G-vecs:    dense   smooth      PW
     Sum        3577    1789    553               228191    80831   13637

     Using Slab Decomposition



     bravais-lattice index     =            0
     lattice parameter (alat)  =      10.6088  a.u.
     unit-cell volume          =    1688.5722 (a.u.)^3
     number of atoms/cell      =           20
     number of atomic types    =            3
     number of electrons       =       168.00
     number of Kohn-Sham states=          101
     kinetic-energy cutoff     =      50.0000  Ry
     charge density cutoff     =     400.0000  Ry
     Exchange-correlation= SLA  PZ   NOGX NOGC
                           (   1   1   0   0   0   0   0)

     celldm(1)=  10.608847  celldm(2)=   0.000000  celldm(3)=   0.000000
     celldm(4)=   0.000000  celldm(5)=   0.000000  celldm(6)=   0.000000

     crystal axes: (cart. coord. in units of alat)
               a(1) = (   1.000000   0.000000   0.000000 )  
               a(2) = (   0.000000   1.000000   0.000000 )  
               a(3) = (   0.000000   0.000000   1.414214 )  

     reciprocal axes: (cart. coord. in units 2 pi/alat)
               b(1) = (  1.000000  0.000000  0.000000 )  
               b(2) = (  0.000000  1.000000  0.000000 )  
               b(3) = (  0.000000  0.000000  0.707107 )  


     PseudoPot. # 1 for Sr read from file:
     ../../../pseudo/Sr.pz-spn-kjpaw_psl.1.0.0.UPF
     MD5 check sum: 14b1f655f5497b386c4f305353cf4fd4
     Pseudo is Projector augmented-wave + core cor, Zval = 10.0
     Generated using 'atomic' code by A. Dal Corso  v.7.3
     Shape of augmentation charge: PSQ
     Using radial grid of 1221 points,  6 beta functions with: 
                l(1) =   0
                l(2) =   0
                l(3) =   1
                l(4) =   1
                l(5) =   2
                l(6) =   2
     Q(r) pseudized with 0 coefficients 


     PseudoPot. # 2 for Mo read from file:
     ../../../pseudo/Mo.pz-spn-kjpaw_psl.1.0.0.UPF
     MD5 check sum: 2e12aff744a4785a34e7548d4bec1d21
     Pseudo is Projector augmented-wave + core cor, Zval = 14.0
     Generated using 'atomic' code by A. Dal Corso  v.7.3
     Shape of augmentation charge: PSQ
     Using radial grid of 1229 points,  6 beta functions with: 
                l(1) =   0
                l(2) =   0
                l(3) =   1
                l(4) =   1
                l(5) =   2
                l(6) =   2
     Q(r) pseudized with 0 coefficients 


     PseudoPot. # 3 for O  read from file:
     ../../../pseudo/O.pz-n-kjpaw_psl.1.0.0.UPF
     MD5 check sum: 71a951e35f67dc87891058fc5642ed8f
     Pseudo is Projector augmented-wave + core cor, Zval =  6.0
     Generated using 'atomic' code by A. Dal Corso  v.7.3
     Shape of augmentation charge: PSQ
     Using radial grid of 1095 points,  4 beta functions with: 
                l(1) =   0
                l(2) =   0
                l(3) =   1
                l(4) =   1
     Q(r) pseudized with 0 coefficients 


     atomic species   valence    mass     pseudopotential
     Sr               10.00    87.62000     Sr( 1.00)
     Mo               14.00    95.95000     Mo( 1.00)
     O                 6.00    15.99900     O ( 1.00)

     No symmetry found


                                    s                        frac. trans.

      isym =  1     identity                                     

 cryst.   s( 1) = (     1          0          0      )
                  (     0          1          0      )
                  (     0          0          1      )

 cart.    s( 1) = (  1.0000000  0.0000000  0.0000000 )
                  (  0.0000000  1.0000000  0.0000000 )
                  (  0.0000000  0.0000000  1.0000000 )


   Cartesian axes

     site n.     atom                  positions (alat units)
         1        Sr     tau(   1) = (   0.0000000   0.5000000   0.3535535  )
         2        Sr     tau(   2) = (   0.0000000   0.5000000   1.0606604  )
         3        Sr     tau(   3) = (   0.5000000   0.0000000   1.0606604  )
         4        Sr     tau(   4) = (   0.5000000   0.0000000   0.3535535  )
         5        Mo     tau(   5) = (   0.0000000   0.0000000   0.0000000  )
         6        Mo     tau(   6) = (   0.0000000   0.0000000   0.7071069  )
         7        Mo     tau(   7) = (   0.5000000   0.5000000   0.7071069  )
         8        Mo     tau(   8) = (   0.5000000   0.5000000   0.0000000  )
         9        O      tau(   9) = (   0.2500000   0.7500000   0.0188925  )
        10        O      tau(  10) = (   0.2500000   0.2500000  -0.0188925  )
        11        O      tau(  11) = (   0.7500000   0.2500000   0.7259994  )
        12        O      tau(  12) = (   0.7500000   0.7500000   0.6882144  )
        13        O      tau(  13) = (   0.7500000   0.2500000  -0.0188925  )
        14        O      tau(  14) = (   0.7500000   0.7500000   0.0188925  )
        15        O      tau(  15) = (   0.2500000   0.7500000   0.6882144  )
        16        O      tau(  16) = (   0.2500000   0.2500000   0.7259994  )
        17        O      tau(  17) = (   0.0000000   0.0267180   0.3535535  )
        18        O      tau(  18) = (   0.0000000  -0.0267180   1.0606604  )
        19        O      tau(  19) = (   0.5000000   0.5267180   1.0606604  )
        20        O      tau(  20) = (   0.5000000   0.4732820   0.3535535  )

   Crystallographic axes

     site n.     atom                  positions (cryst. coord.)
         1        Sr     tau(   1) = (  0.0000000  0.5000000  0.2500000  )
         2        Sr     tau(   2) = (  0.0000000  0.5000000  0.7500000  )
         3        Sr     tau(   3) = (  0.5000000  0.0000000  0.7500000  )
         4        Sr     tau(   4) = (  0.5000000  0.0000000  0.2500000  )
         5        Mo     tau(   5) = (  0.0000000  0.0000000  0.0000000  )
         6        Mo     tau(   6) = (  0.0000000  0.0000000  0.5000000  )
         7        Mo     tau(   7) = (  0.5000000  0.5000000  0.5000000  )
         8        Mo     tau(   8) = (  0.5000000  0.5000000  0.0000000  )
         9        O      tau(   9) = (  0.2500000  0.7500000  0.0133590  )
        10        O      tau(  10) = (  0.2500000  0.2500000 -0.0133590  )
        11        O      tau(  11) = (  0.7500000  0.2500000  0.5133590  )
        12        O      tau(  12) = (  0.7500000  0.7500000  0.4866410  )
        13        O      tau(  13) = (  0.7500000  0.2500000 -0.0133590  )
        14        O      tau(  14) = (  0.7500000  0.7500000  0.0133590  )
        15        O      tau(  15) = (  0.2500000  0.7500000  0.4866410  )
        16        O      tau(  16) = (  0.2500000  0.2500000  0.5133590  )
        17        O      tau(  17) = (  0.0000000  0.0267180  0.2500000  )
        18        O      tau(  18) = (  0.0000000 -0.0267180  0.7500000  )
        19        O      tau(  19) = (  0.5000000  0.5267180  0.7500000  )
        20        O      tau(  20) = (  0.5000000  0.4732820  0.2500000  )

     number of k points=   125  Fermi-Dirac smearing, width (Ry)=  0.0015
                       cart. coord. in units 2pi/alat
        k(    1) = (   0.0000000   0.0000000   0.0000000), wk =   0.0160000
        k(    2) = (   0.0000000   0.0000000   0.1414213), wk =   0.0160000
        k(    3) = (   0.0000000   0.0000000   0.2828427), wk =   0.0160000
        k(    4) = (   0.0000000   0.0000000   0.4242640), wk =   0.0160000
        k(    5) = (   0.0000000   0.0000000   0.5656853), wk =   0.0160000
        k(    6) = (   0.0000000   0.2000000   0.0000000), wk =   0.0160000
        k(    7) = (   0.0000000   0.2000000   0.1414213), wk =   0.0160000
        k(    8) = (   0.0000000   0.2000000   0.2828427), wk =   0.0160000
        k(    9) = (   0.0000000   0.2000000   0.4242640), wk =   0.0160000
        k(   10) = (   0.0000000   0.2000000   0.5656853), wk =   0.0160000
        k(   11) = (   0.0000000   0.4000000   0.0000000), wk =   0.0160000
        k(   12) = (   0.0000000   0.4000000   0.1414213), wk =   0.0160000
        k(   13) = (   0.0000000   0.4000000   0.2828427), wk =   0.0160000
        k(   14) = (   0.0000000   0.4000000   0.4242640), wk =   0.0160000
        k(   15) = (   0.0000000   0.4000000   0.5656853), wk =   0.0160000
        k(   16) = (   0.0000000   0.6000000   0.0000000), wk =   0.0160000
        k(   17) = (   0.0000000   0.6000000   0.1414213), wk =   0.0160000
        k(   18) = (   0.0000000   0.6000000   0.2828427), wk =   0.0160000
        k(   19) = (   0.0000000   0.6000000   0.4242640), wk =   0.0160000
        k(   20) = (   0.0000000   0.6000000   0.5656853), wk =   0.0160000
        k(   21) = (   0.0000000   0.8000000   0.0000000), wk =   0.0160000
        k(   22) = (   0.0000000   0.8000000   0.1414213), wk =   0.0160000
        k(   23) = (   0.0000000   0.8000000   0.2828427), wk =   0.0160000
        k(   24) = (   0.0000000   0.8000000   0.4242640), wk =   0.0160000
        k(   25) = (   0.0000000   0.8000000   0.5656853), wk =   0.0160000
        k(   26) = (   0.2000000   0.0000000   0.0000000), wk =   0.0160000
        k(   27) = (   0.2000000   0.0000000   0.1414213), wk =   0.0160000
        k(   28) = (   0.2000000   0.0000000   0.2828427), wk =   0.0160000
        k(   29) = (   0.2000000   0.0000000   0.4242640), wk =   0.0160000
        k(   30) = (   0.2000000   0.0000000   0.5656853), wk =   0.0160000
        k(   31) = (   0.2000000   0.2000000   0.0000000), wk =   0.0160000
        k(   32) = (   0.2000000   0.2000000   0.1414213), wk =   0.0160000
        k(   33) = (   0.2000000   0.2000000   0.2828427), wk =   0.0160000
        k(   34) = (   0.2000000   0.2000000   0.4242640), wk =   0.0160000
        k(   35) = (   0.2000000   0.2000000   0.5656853), wk =   0.0160000
        k(   36) = (   0.2000000   0.4000000   0.0000000), wk =   0.0160000
        k(   37) = (   0.2000000   0.4000000   0.1414213), wk =   0.0160000
        k(   38) = (   0.2000000   0.4000000   0.2828427), wk =   0.0160000
        k(   39) = (   0.2000000   0.4000000   0.4242640), wk =   0.0160000
        k(   40) = (   0.2000000   0.4000000   0.5656853), wk =   0.0160000
        k(   41) = (   0.2000000   0.6000000   0.0000000), wk =   0.0160000
        k(   42) = (   0.2000000   0.6000000   0.1414213), wk =   0.0160000
        k(   43) = (   0.2000000   0.6000000   0.2828427), wk =   0.0160000
        k(   44) = (   0.2000000   0.6000000   0.4242640), wk =   0.0160000
        k(   45) = (   0.2000000   0.6000000   0.5656853), wk =   0.0160000
        k(   46) = (   0.2000000   0.8000000   0.0000000), wk =   0.0160000
        k(   47) = (   0.2000000   0.8000000   0.1414213), wk =   0.0160000
        k(   48) = (   0.2000000   0.8000000   0.2828427), wk =   0.0160000
        k(   49) = (   0.2000000   0.8000000   0.4242640), wk =   0.0160000
        k(   50) = (   0.2000000   0.8000000   0.5656853), wk =   0.0160000
        k(   51) = (   0.4000000   0.0000000   0.0000000), wk =   0.0160000
        k(   52) = (   0.4000000   0.0000000   0.1414213), wk =   0.0160000
        k(   53) = (   0.4000000   0.0000000   0.2828427), wk =   0.0160000
        k(   54) = (   0.4000000   0.0000000   0.4242640), wk =   0.0160000
        k(   55) = (   0.4000000   0.0000000   0.5656853), wk =   0.0160000
        k(   56) = (   0.4000000   0.2000000   0.0000000), wk =   0.0160000
        k(   57) = (   0.4000000   0.2000000   0.1414213), wk =   0.0160000
        k(   58) = (   0.4000000   0.2000000   0.2828427), wk =   0.0160000
        k(   59) = (   0.4000000   0.2000000   0.4242640), wk =   0.0160000
        k(   60) = (   0.4000000   0.2000000   0.5656853), wk =   0.0160000
        k(   61) = (   0.4000000   0.4000000   0.0000000), wk =   0.0160000
        k(   62) = (   0.4000000   0.4000000   0.1414213), wk =   0.0160000
        k(   63) = (   0.4000000   0.4000000   0.2828427), wk =   0.0160000
        k(   64) = (   0.4000000   0.4000000   0.4242640), wk =   0.0160000
        k(   65) = (   0.4000000   0.4000000   0.5656853), wk =   0.0160000
        k(   66) = (   0.4000000   0.6000000   0.0000000), wk =   0.0160000
        k(   67) = (   0.4000000   0.6000000   0.1414213), wk =   0.0160000
        k(   68) = (   0.4000000   0.6000000   0.2828427), wk =   0.0160000
        k(   69) = (   0.4000000   0.6000000   0.4242640), wk =   0.0160000
        k(   70) = (   0.4000000   0.6000000   0.5656853), wk =   0.0160000
        k(   71) = (   0.4000000   0.8000000   0.0000000), wk =   0.0160000
        k(   72) = (   0.4000000   0.8000000   0.1414213), wk =   0.0160000
        k(   73) = (   0.4000000   0.8000000   0.2828427), wk =   0.0160000
        k(   74) = (   0.4000000   0.8000000   0.4242640), wk =   0.0160000
        k(   75) = (   0.4000000   0.8000000   0.5656853), wk =   0.0160000
        k(   76) = (   0.6000000   0.0000000   0.0000000), wk =   0.0160000
        k(   77) = (   0.6000000   0.0000000   0.1414213), wk =   0.0160000
        k(   78) = (   0.6000000   0.0000000   0.2828427), wk =   0.0160000
        k(   79) = (   0.6000000   0.0000000   0.4242640), wk =   0.0160000
        k(   80) = (   0.6000000   0.0000000   0.5656853), wk =   0.0160000
        k(   81) = (   0.6000000   0.2000000   0.0000000), wk =   0.0160000
        k(   82) = (   0.6000000   0.2000000   0.1414213), wk =   0.0160000
        k(   83) = (   0.6000000   0.2000000   0.2828427), wk =   0.0160000
        k(   84) = (   0.6000000   0.2000000   0.4242640), wk =   0.0160000
        k(   85) = (   0.6000000   0.2000000   0.5656853), wk =   0.0160000
        k(   86) = (   0.6000000   0.4000000   0.0000000), wk =   0.0160000
        k(   87) = (   0.6000000   0.4000000   0.1414213), wk =   0.0160000
        k(   88) = (   0.6000000   0.4000000   0.2828427), wk =   0.0160000
        k(   89) = (   0.6000000   0.4000000   0.4242640), wk =   0.0160000
        k(   90) = (   0.6000000   0.4000000   0.5656853), wk =   0.0160000
        k(   91) = (   0.6000000   0.6000000   0.0000000), wk =   0.0160000
        k(   92) = (   0.6000000   0.6000000   0.1414213), wk =   0.0160000
        k(   93) = (   0.6000000   0.6000000   0.2828427), wk =   0.0160000
        k(   94) = (   0.6000000   0.6000000   0.4242640), wk =   0.0160000
        k(   95) = (   0.6000000   0.6000000   0.5656853), wk =   0.0160000
        k(   96) = (   0.6000000   0.8000000   0.0000000), wk =   0.0160000
        k(   97) = (   0.6000000   0.8000000   0.1414213), wk =   0.0160000
        k(   98) = (   0.6000000   0.8000000   0.2828427), wk =   0.0160000
        k(   99) = (   0.6000000   0.8000000   0.4242640), wk =   0.0160000
        k(  100) = (   0.6000000   0.8000000   0.5656853), wk =   0.0160000
        k(  101) = (   0.8000000   0.0000000   0.0000000), wk =   0.0160000
        k(  102) = (   0.8000000   0.0000000   0.1414213), wk =   0.0160000
        k(  103) = (   0.8000000   0.0000000   0.2828427), wk =   0.0160000
        k(  104) = (   0.8000000   0.0000000   0.4242640), wk =   0.0160000
        k(  105) = (   0.8000000   0.0000000   0.5656853), wk =   0.0160000
        k(  106) = (   0.8000000   0.2000000   0.0000000), wk =   0.0160000
        k(  107) = (   0.8000000   0.2000000   0.1414213), wk =   0.0160000
        k(  108) = (   0.8000000   0.2000000   0.2828427), wk =   0.0160000
        k(  109) = (   0.8000000   0.2000000   0.4242640), wk =   0.0160000
        k(  110) = (   0.8000000   0.2000000   0.5656853), wk =   0.0160000
        k(  111) = (   0.8000000   0.4000000   0.0000000), wk =   0.0160000
        k(  112) = (   0.8000000   0.4000000   0.1414213), wk =   0.0160000
        k(  113) = (   0.8000000   0.4000000   0.2828427), wk =   0.0160000
        k(  114) = (   0.8000000   0.4000000   0.4242640), wk =   0.0160000
        k(  115) = (   0.8000000   0.4000000   0.5656853), wk =   0.0160000
        k(  116) = (   0.8000000   0.6000000   0.0000000), wk =   0.0160000
        k(  117) = (   0.8000000   0.6000000   0.1414213), wk =   0.0160000
        k(  118) = (   0.8000000   0.6000000   0.2828427), wk =   0.0160000
        k(  119) = (   0.8000000   0.6000000   0.4242640), wk =   0.0160000
        k(  120) = (   0.8000000   0.6000000   0.5656853), wk =   0.0160000
        k(  121) = (   0.8000000   0.8000000   0.0000000), wk =   0.0160000
        k(  122) = (   0.8000000   0.8000000   0.1414213), wk =   0.0160000
        k(  123) = (   0.8000000   0.8000000   0.2828427), wk =   0.0160000
        k(  124) = (   0.8000000   0.8000000   0.4242640), wk =   0.0160000
        k(  125) = (   0.8000000   0.8000000   0.5656853), wk =   0.0160000

                       cryst. coord.
        k(    1) = (   0.0000000   0.0000000   0.0000000), wk =   0.0160000
        k(    2) = (   0.0000000   0.0000000   0.2000000), wk =   0.0160000
        k(    3) = (   0.0000000   0.0000000   0.4000000), wk =   0.0160000
        k(    4) = (   0.0000000   0.0000000   0.6000000), wk =   0.0160000
        k(    5) = (   0.0000000   0.0000000   0.8000000), wk =   0.0160000
        k(    6) = (   0.0000000   0.2000000   0.0000000), wk =   0.0160000
        k(    7) = (   0.0000000   0.2000000   0.2000000), wk =   0.0160000
        k(    8) = (   0.0000000   0.2000000   0.4000000), wk =   0.0160000
        k(    9) = (   0.0000000   0.2000000   0.6000000), wk =   0.0160000
        k(   10) = (   0.0000000   0.2000000   0.8000000), wk =   0.0160000
        k(   11) = (   0.0000000   0.4000000   0.0000000), wk =   0.0160000
        k(   12) = (   0.0000000   0.4000000   0.2000000), wk =   0.0160000
        k(   13) = (   0.0000000   0.4000000   0.4000000), wk =   0.0160000
        k(   14) = (   0.0000000   0.4000000   0.6000000), wk =   0.0160000
        k(   15) = (   0.0000000   0.4000000   0.8000000), wk =   0.0160000
        k(   16) = (   0.0000000   0.6000000   0.0000000), wk =   0.0160000
        k(   17) = (   0.0000000   0.6000000   0.2000000), wk =   0.0160000
        k(   18) = (   0.0000000   0.6000000   0.4000000), wk =   0.0160000
        k(   19) = (   0.0000000   0.6000000   0.6000000), wk =   0.0160000
        k(   20) = (   0.0000000   0.6000000   0.8000000), wk =   0.0160000
        k(   21) = (   0.0000000   0.8000000   0.0000000), wk =   0.0160000
        k(   22) = (   0.0000000   0.8000000   0.2000000), wk =   0.0160000
        k(   23) = (   0.0000000   0.8000000   0.4000000), wk =   0.0160000
        k(   24) = (   0.0000000   0.8000000   0.6000000), wk =   0.0160000
        k(   25) = (   0.0000000   0.8000000   0.8000000), wk =   0.0160000
        k(   26) = (   0.2000000   0.0000000   0.0000000), wk =   0.0160000
        k(   27) = (   0.2000000   0.0000000   0.2000000), wk =   0.0160000
        k(   28) = (   0.2000000   0.0000000   0.4000000), wk =   0.0160000
        k(   29) = (   0.2000000   0.0000000   0.6000000), wk =   0.0160000
        k(   30) = (   0.2000000   0.0000000   0.8000000), wk =   0.0160000
        k(   31) = (   0.2000000   0.2000000   0.0000000), wk =   0.0160000
        k(   32) = (   0.2000000   0.2000000   0.2000000), wk =   0.0160000
        k(   33) = (   0.2000000   0.2000000   0.4000000), wk =   0.0160000
        k(   34) = (   0.2000000   0.2000000   0.6000000), wk =   0.0160000
        k(   35) = (   0.2000000   0.2000000   0.8000000), wk =   0.0160000
        k(   36) = (   0.2000000   0.4000000   0.0000000), wk =   0.0160000
        k(   37) = (   0.2000000   0.4000000   0.2000000), wk =   0.0160000
        k(   38) = (   0.2000000   0.4000000   0.4000000), wk =   0.0160000
        k(   39) = (   0.2000000   0.4000000   0.6000000), wk =   0.0160000
        k(   40) = (   0.2000000   0.4000000   0.8000000), wk =   0.0160000
        k(   41) = (   0.2000000   0.6000000   0.0000000), wk =   0.0160000
        k(   42) = (   0.2000000   0.6000000   0.2000000), wk =   0.0160000
        k(   43) = (   0.2000000   0.6000000   0.4000000), wk =   0.0160000
        k(   44) = (   0.2000000   0.6000000   0.6000000), wk =   0.0160000
        k(   45) = (   0.2000000   0.6000000   0.8000000), wk =   0.0160000
        k(   46) = (   0.2000000   0.8000000   0.0000000), wk =   0.0160000
        k(   47) = (   0.2000000   0.8000000   0.2000000), wk =   0.0160000
        k(   48) = (   0.2000000   0.8000000   0.4000000), wk =   0.0160000
        k(   49) = (   0.2000000   0.8000000   0.6000000), wk =   0.0160000
        k(   50) = (   0.2000000   0.8000000   0.8000000), wk =   0.0160000
        k(   51) = (   0.4000000   0.0000000   0.0000000), wk =   0.0160000
        k(   52) = (   0.4000000   0.0000000   0.2000000), wk =   0.0160000
        k(   53) = (   0.4000000   0.0000000   0.4000000), wk =   0.0160000
        k(   54) = (   0.4000000   0.0000000   0.6000000), wk =   0.0160000
        k(   55) = (   0.4000000   0.0000000   0.8000000), wk =   0.0160000
        k(   56) = (   0.4000000   0.2000000   0.0000000), wk =   0.0160000
        k(   57) = (   0.4000000   0.2000000   0.2000000), wk =   0.0160000
        k(   58) = (   0.4000000   0.2000000   0.4000000), wk =   0.0160000
        k(   59) = (   0.4000000   0.2000000   0.6000000), wk =   0.0160000
        k(   60) = (   0.4000000   0.2000000   0.8000000), wk =   0.0160000
        k(   61) = (   0.4000000   0.4000000   0.0000000), wk =   0.0160000
        k(   62) = (   0.4000000   0.4000000   0.2000000), wk =   0.0160000
        k(   63) = (   0.4000000   0.4000000   0.4000000), wk =   0.0160000
        k(   64) = (   0.4000000   0.4000000   0.6000000), wk =   0.0160000
        k(   65) = (   0.4000000   0.4000000   0.8000000), wk =   0.0160000
        k(   66) = (   0.4000000   0.6000000   0.0000000), wk =   0.0160000
        k(   67) = (   0.4000000   0.6000000   0.2000000), wk =   0.0160000
        k(   68) = (   0.4000000   0.6000000   0.4000000), wk =   0.0160000
        k(   69) = (   0.4000000   0.6000000   0.6000000), wk =   0.0160000
        k(   70) = (   0.4000000   0.6000000   0.8000000), wk =   0.0160000
        k(   71) = (   0.4000000   0.8000000   0.0000000), wk =   0.0160000
        k(   72) = (   0.4000000   0.8000000   0.2000000), wk =   0.0160000
        k(   73) = (   0.4000000   0.8000000   0.4000000), wk =   0.0160000
        k(   74) = (   0.4000000   0.8000000   0.6000000), wk =   0.0160000
        k(   75) = (   0.4000000   0.8000000   0.8000000), wk =   0.0160000
        k(   76) = (   0.6000000   0.0000000   0.0000000), wk =   0.0160000
        k(   77) = (   0.6000000   0.0000000   0.2000000), wk =   0.0160000
        k(   78) = (   0.6000000   0.0000000   0.4000000), wk =   0.0160000
        k(   79) = (   0.6000000   0.0000000   0.6000000), wk =   0.0160000
        k(   80) = (   0.6000000   0.0000000   0.8000000), wk =   0.0160000
        k(   81) = (   0.6000000   0.2000000   0.0000000), wk =   0.0160000
        k(   82) = (   0.6000000   0.2000000   0.2000000), wk =   0.0160000
        k(   83) = (   0.6000000   0.2000000   0.4000000), wk =   0.0160000
        k(   84) = (   0.6000000   0.2000000   0.6000000), wk =   0.0160000
        k(   85) = (   0.6000000   0.2000000   0.8000000), wk =   0.0160000
        k(   86) = (   0.6000000   0.4000000   0.0000000), wk =   0.0160000
        k(   87) = (   0.6000000   0.4000000   0.2000000), wk =   0.0160000
        k(   88) = (   0.6000000   0.4000000   0.4000000), wk =   0.0160000
        k(   89) = (   0.6000000   0.4000000   0.6000000), wk =   0.0160000
        k(   90) = (   0.6000000   0.4000000   0.8000000), wk =   0.0160000
        k(   91) = (   0.6000000   0.6000000   0.0000000), wk =   0.0160000
        k(   92) = (   0.6000000   0.6000000   0.2000000), wk =   0.0160000
        k(   93) = (   0.6000000   0.6000000   0.4000000), wk =   0.0160000
        k(   94) = (   0.6000000   0.6000000   0.6000000), wk =   0.0160000
        k(   95) = (   0.6000000   0.6000000   0.8000000), wk =   0.0160000
        k(   96) = (   0.6000000   0.8000000   0.0000000), wk =   0.0160000
        k(   97) = (   0.6000000   0.8000000   0.2000000), wk =   0.0160000
        k(   98) = (   0.6000000   0.8000000   0.4000000), wk =   0.0160000
        k(   99) = (   0.6000000   0.8000000   0.6000000), wk =   0.0160000
        k(  100) = (   0.6000000   0.8000000   0.8000000), wk =   0.0160000
        k(  101) = (   0.8000000   0.0000000   0.0000000), wk =   0.0160000
        k(  102) = (   0.8000000   0.0000000   0.2000000), wk =   0.0160000
        k(  103) = (   0.8000000   0.0000000   0.4000000), wk =   0.0160000
        k(  104) = (   0.8000000   0.0000000   0.6000000), wk =   0.0160000
        k(  105) = (   0.8000000   0.0000000   0.8000000), wk =   0.0160000
        k(  106) = (   0.8000000   0.2000000   0.0000000), wk =   0.0160000
        k(  107) = (   0.8000000   0.2000000   0.2000000), wk =   0.0160000
        k(  108) = (   0.8000000   0.2000000   0.4000000), wk =   0.0160000
        k(  109) = (   0.8000000   0.2000000   0.6000000), wk =   0.0160000
        k(  110) = (   0.8000000   0.2000000   0.8000000), wk =   0.0160000
        k(  111) = (   0.8000000   0.4000000   0.0000000), wk =   0.0160000
        k(  112) = (   0.8000000   0.4000000   0.2000000), wk =   0.0160000
        k(  113) = (   0.8000000   0.4000000   0.4000000), wk =   0.0160000
        k(  114) = (   0.8000000   0.4000000   0.6000000), wk =   0.0160000
        k(  115) = (   0.8000000   0.4000000   0.8000000), wk =   0.0160000
        k(  116) = (   0.8000000   0.6000000   0.0000000), wk =   0.0160000
        k(  117) = (   0.8000000   0.6000000   0.2000000), wk =   0.0160000
        k(  118) = (   0.8000000   0.6000000   0.4000000), wk =   0.0160000
        k(  119) = (   0.8000000   0.6000000   0.6000000), wk =   0.0160000
        k(  120) = (   0.8000000   0.6000000   0.8000000), wk =   0.0160000
        k(  121) = (   0.8000000   0.8000000   0.0000000), wk =   0.0160000
        k(  122) = (   0.8000000   0.8000000   0.2000000), wk =   0.0160000
        k(  123) = (   0.8000000   0.8000000   0.4000000), wk =   0.0160000
        k(  124) = (   0.8000000   0.8000000   0.6000000), wk =   0.0160000
        k(  125) = (   0.8000000   0.8000000   0.8000000), wk =   0.0160000

     Dense  grid:   228191 G-vectors     FFT dimensions: (  72,  72,  96)

     Smooth grid:    80831 G-vectors     FFT dimensions: (  48,  48,  72)

     Dynamical RAM for                 wfc:      15.54 MB

     Dynamical RAM for     wfc (w. buffer):      15.54 MB

     Dynamical RAM for           str. fact:      10.45 MB

     Dynamical RAM for           local pot:       0.00 MB

     Dynamical RAM for          nlocal pot:      36.92 MB

     Dynamical RAM for                qrad:       4.82 MB

     Dynamical RAM for          rho,v,vnew:      21.84 MB

     Dynamical RAM for           G-vectors:      13.67 MB

     Dynamical RAM for          h,s,v(r/c):      29.89 MB

     Dynamical RAM for          <psi|beta>:       0.37 MB

     Dynamical RAM for                 psi:     124.29 MB

     Dynamical RAM for                hpsi:     124.29 MB

     Dynamical RAM for                spsi:     124.29 MB

     Dynamical RAM for      wfcinit/wfcrot:      31.31 MB

     Dynamical RAM for           addusdens:       8.84 MB

     Estimated static dynamical RAM per process >     136.14 MB

     Estimated max dynamical RAM per process >     539.26 MB

     Estimated total dynamical RAM >      67.41 GB

     Check: negative core charge=   -0.000002

     The potential is recalculated from file :
     ./out/smo.save/charge-density

     Starting wfcs are  120 randomized atomic wfcs
     Checking if some PAW data can be deallocated... 
       PAW data deallocated on  100 nodes for type:  1
       PAW data deallocated on  100 nodes for type:  2
       PAW data deallocated on   56 nodes for type:  3

     Band Structure Calculation
     Davidson diagonalization with overlap

     Computing kpt #:     1  of     1 on this pool
     c_bands:  2 eigenvalues not converged
     total cpu time spent up to now is       37.2 secs

     ethr =  5.95E-12,  avg # of iterations = 58.0

     total cpu time spent up to now is       38.0 secs

     End of band structure calculation

          k = 0.0000 0.0000 0.0000 ( 10085 PWs)   bands (ev):

   -48.9486 -48.9478 -48.9458 -48.9447 -23.2770 -23.2595 -23.2590 -23.2555
   -23.2545 -23.2505 -23.1862 -23.1819 -23.1809 -23.1773 -23.1770 -23.1738
   -22.0941 -22.0622 -22.0580 -22.0424  -6.9774  -6.7348  -6.2690  -6.0924
    -6.0694  -6.0151  -5.8050  -5.7712  -5.3268  -5.3248  -5.3205  -5.2936
    -4.3772  -4.3534  -4.3148  -4.1206  -4.0923  -4.0897  -4.0839  -4.0689
    -4.0352  -3.7256  -3.6927  -3.6191   5.1612   5.1805   5.1906   5.2842
     5.3560   5.4167   5.6068   6.2481   6.2502   6.2509   7.1838   7.1869
     7.6436   7.6465   7.7218   7.7380   7.7800   7.7833   7.7921   7.8438
     8.2676   8.7259   8.7337   8.7835   9.0820   9.1060   9.1191   9.4516
     9.4635   9.7391   9.7423   9.7538  10.1476  10.1686  10.1741  10.2027
    11.6639  11.6859  11.6958  11.8539  14.2242  14.2937  14.3278  14.3644
    15.0783  15.1496  15.2343  15.4141  15.5166  15.6155  15.6977  15.7491
    15.8171  15.9251  16.5954  17.0696  17.1040

     occupation numbers 
     1.0000   1.0000   1.0000   1.0000   1.0000   1.0000   1.0000   1.0000
     1.0000   1.0000   1.0000   1.0000   1.0000   1.0000   1.0000   1.0000
     1.0000   1.0000   1.0000   1.0000   1.0000   1.0000   1.0000   1.0000
     1.0000   1.0000   1.0000   1.0000   1.0000   1.0000   1.0000   1.0000
     1.0000   1.0000   1.0000   1.0000   1.0000   1.0000   1.0000   1.0000
     1.0000   1.0000   1.0000   1.0000   1.0000   1.0000   1.0000   1.0000
     1.0000   1.0000   1.0000   1.0000   1.0000   1.0000   1.0000   1.0000
     1.0000   1.0000   1.0000   1.0000   1.0000   1.0000   1.0000   1.0000
     1.0000   1.0000   1.0000   1.0000   1.0000   1.0000   1.0000   1.0000
     1.0000   1.0000   1.0000   1.0000   1.0000   1.0000   1.0000   1.0000
     1.0000   1.0000   1.0000   1.0000   0.0000   0.0000   0.0000   0.0000
     0.0000   0.0000   0.0000   0.0000   0.0000   0.0000   0.0000   0.0000
     0.0000   0.0000   0.0000   0.0000   0.0000

          k = 0.0000 0.0000 0.1414 ( 10050 PWs)   bands (ev):

   -48.9486 -48.9475 -48.9458 -48.9445 -23.2685 -23.2591 -23.2558 -23.2541
   -23.2514 -23.2508 -23.1951 -23.1876 -23.1816 -23.1785 -23.1767 -23.1739
   -22.0910 -22.0651 -22.0565 -22.0439  -6.9458  -6.7355  -6.1877  -6.0652
    -6.0642  -6.0222  -5.7828  -5.7361  -5.4219  -5.4116  -5.3866  -5.3607
    -4.3462  -4.2712  -4.2355  -4.1172  -4.0891  -4.0874  -4.0721  -4.0691
    -4.0402  -3.7734  -3.7410  -3.6587   5.1631   5.1787   5.3068   5.3616
     5.4956   5.5317   5.7551   6.1681   6.3078   6.3084   7.0290   7.0346
     7.5764   7.6181   7.6322   7.7645   7.7720   7.8519   7.8625   7.9431
     8.3265   8.3515   8.9096   8.9364   8.9367   8.9709   9.0150   9.3864
     9.4626   9.4780   9.6645   9.6809  10.0555  10.0752  10.1748  10.2111
    11.6997  11.8360  11.9919  12.0176  14.0227  14.0970  14.3610  14.4331
    15.1206  15.1366  15.1721  15.3891  15.5171  15.5702  15.8641  15.9140
    15.9787  16.1731  16.9563  17.1657  17.3110

     occupation numbers 
     1.0000   1.0000   1.0000   1.0000   1.0000   1.0000   1.0000   1.0000
     1.0000   1.0000   1.0000   1.0000   1.0000   1.0000   1.0000   1.0000
     1.0000   1.0000   1.0000   1.0000   1.0000   1.0000   1.0000   1.0000
     1.0000   1.0000   1.0000   1.0000   1.0000   1.0000   1.0000   1.0000
     1.0000   1.0000   1.0000   1.0000   1.0000   1.0000   1.0000   1.0000
     1.0000   1.0000   1.0000   1.0000   1.0000   1.0000   1.0000   1.0000
     1.0000   1.0000   1.0000   1.0000   1.0000   1.0000   1.0000   1.0000
     1.0000   1.0000   1.0000   1.0000   1.0000   1.0000   1.0000   1.0000
     1.0000   1.0000   1.0000   1.0000   1.0000   1.0000   1.0000   1.0000
     1.0000   1.0000   1.0000   1.0000   1.0000   1.0000   1.0000   1.0000
     1.0000   1.0000   1.0000   1.0000   0.0000   0.0000   0.0000   0.0000
     0.0000   0.0000   0.0000   0.0000   0.0000   0.0000   0.0000   0.0000
     0.0000   0.0000   0.0000   0.0000   0.0000

          k = 0.0000 0.0000 0.2828 ( 10046 PWs)   bands (ev):

   -48.9484 -48.9477 -48.9455 -48.9448 -23.2583 -23.2569 -23.2531 -23.2518
   -23.2460 -23.2316 -23.2181 -23.2074 -23.1807 -23.1795 -23.1758 -23.1747
   -22.0828 -22.0729 -22.0526 -22.0478  -6.8645  -6.7760  -6.0537  -6.0378
    -5.9668  -5.9398  -5.7738  -5.6752  -5.6396  -5.5632  -5.5074  -5.5018
    -4.2634  -4.1579  -4.1080  -4.0966  -4.0911  -4.0854  -4.0783  -4.0584
    -3.9122  -3.9060  -3.8741  -3.7673   5.1679   5.1739   5.3736   5.3757
     5.7027   5.9594   6.1804   6.4041   6.4741   6.4760   6.7361   6.7458
     6.9871   7.3600   7.6617   7.6835   7.7173   7.7203   8.1342   8.1444
     8.2396   8.5209   8.5357   8.5467   8.7413   8.7946   9.3583   9.3797
     9.5017   9.5204   9.5686   9.5882   9.7728   9.7909  10.1903  10.2067
    11.7384  11.7907  12.7019  12.7265  13.4578  13.4967  14.5548  14.6305
    14.8402  14.9153  15.2377  15.3220  15.5200  15.5319  16.2652  16.4064
    16.4962  16.8087  16.9477  17.0397  17.2217

     occupation numbers 
     1.0000   1.0000   1.0000   1.0000   1.0000   1.0000   1.0000   1.0000
     1.0000   1.0000   1.0000   1.0000   1.0000   1.0000   1.0000   1.0000
     1.0000   1.0000   1.0000   1.0000   1.0000   1.0000   1.0000   1.0000
     1.0000   1.0000   1.0000   1.0000   1.0000   1.0000   1.0000   1.0000
     1.0000   1.0000   1.0000   1.0000   1.0000   1.0000   1.0000   1.0000
     1.0000   1.0000   1.0000   1.0000   1.0000   1.0000   1.0000   1.0000
     1.0000   1.0000   1.0000   1.0000   1.0000   1.0000   1.0000   1.0000
     1.0000   1.0000   1.0000   1.0000   1.0000   1.0000   1.0000   1.0000
     1.0000   1.0000   1.0000   1.0000   1.0000   1.0000   1.0000   1.0000
     1.0000   1.0000   1.0000   1.0000   1.0000   1.0000   1.0000   1.0000
     1.0000   1.0000   1.0000   1.0000   0.9985   0.9899   0.0000   0.0000
     0.0000   0.0000   0.0000   0.0000   0.0000   0.0000   0.0000   0.0000
     0.0000   0.0000   0.0000   0.0000   0.0000

          k = 0.0000 0.0000 0.4243 ( 10046 PWs)   bands (ev):

   -48.9484 -48.9477 -48.9455 -48.9448 -23.2583 -23.2569 -23.2531 -23.2518
   -23.2460 -23.2316 -23.2181 -23.2074 -23.1807 -23.1795 -23.1758 -23.1747
   -22.0828 -22.0729 -22.0526 -22.0478  -6.8645  -6.7760  -6.0537  -6.0378
    -5.9668  -5.9398  -5.7738  -5.6752  -5.6396  -5.5632  -5.5074  -5.5018
    -4.2634  -4.1579  -4.1080  -4.0966  -4.0911  -4.0854  -4.0783  -4.0584
    -3.9122  -3.9060  -3.8741  -3.7673   5.1679   5.1739   5.3736   5.3757
     5.7027   5.9594   6.1804   6.4041   6.4741   6.4760   6.7361   6.7458
     6.9871   7.3600   7.6617   7.6835   7.7173   7.7203   8.1342   8.1444
     8.2396   8.5209   8.5357   8.5467   8.7413   8.7946   9.3583   9.3797
     9.5017   9.5204   9.5686   9.5882   9.7728   9.7909  10.1903  10.2067
    11.7384  11.7907  12.7019  12.7265  13.4578  13.4967  14.5548  14.6305
    14.8402  14.9153  15.2377  15.3220  15.5200  15.5319  16.2652  16.4064
    16.4962  16.8087  16.9477  17.0397  17.2217

     occupation numbers 
     1.0000   1.0000   1.0000   1.0000   1.0000   1.0000   1.0000   1.0000
     1.0000   1.0000   1.0000   1.0000   1.0000   1.0000   1.0000   1.0000
     1.0000   1.0000   1.0000   1.0000   1.0000   1.0000   1.0000   1.0000
     1.0000   1.0000   1.0000   1.0000   1.0000   1.0000   1.0000   1.0000
     1.0000   1.0000   1.0000   1.0000   1.0000   1.0000   1.0000   1.0000
     1.0000   1.0000   1.0000   1.0000   1.0000   1.0000   1.0000   1.0000
     1.0000   1.0000   1.0000   1.0000   1.0000   1.0000   1.0000   1.0000
     1.0000   1.0000   1.0000   1.0000   1.0000   1.0000   1.0000   1.0000
     1.0000   1.0000   1.0000   1.0000   1.0000   1.0000   1.0000   1.0000
     1.0000   1.0000   1.0000   1.0000   1.0000   1.0000   1.0000   1.0000
     1.0000   1.0000   1.0000   1.0000   0.9985   0.9899   0.0000   0.0000
     0.0000   0.0000   0.0000   0.0000   0.0000   0.0000   0.0000   0.0000
     0.0000   0.0000   0.0000   0.0000   0.0000

          k = 0.0000 0.0000 0.5657 ( 10050 PWs)   bands (ev):

   -48.9486 -48.9475 -48.9458 -48.9445 -23.2685 -23.2591 -23.2558 -23.2541
   -23.2514 -23.2508 -23.1951 -23.1876 -23.1816 -23.1785 -23.1767 -23.1739
   -22.0910 -22.0651 -22.0565 -22.0439  -6.9458  -6.7355  -6.1877  -6.0652
    -6.0642  -6.0222  -5.7828  -5.7361  -5.4219  -5.4116  -5.3866  -5.3607
    -4.3462  -4.2712  -4.2355  -4.1172  -4.0891  -4.0874  -4.0721  -4.0691
    -4.0402  -3.7734  -3.7410  -3.6587   5.1631   5.1787   5.3068   5.3616
     5.4956   5.5317   5.7551   6.1681   6.3078   6.3084   7.0290   7.0346
     7.5764   7.6181   7.6322   7.7645   7.7720   7.8519   7.8625   7.9431
     8.3265   8.3515   8.9096   8.9364   8.9367   8.9709   9.0150   9.3864
     9.4626   9.4780   9.6645   9.6809  10.0555  10.0752  10.1748  10.2111
    11.6997  11.8360  11.9919  12.0176  14.0227  14.0970  14.3610  14.4331
    15.1206  15.1366  15.1721  15.3891  15.5171  15.5702  15.8641  15.9140
    15.9787  16.1731  16.9563  17.1657  17.3110

     occupation numbers 
     1.0000   1.0000   1.0000   1.0000   1.0000   1.0000   1.0000   1.0000
     1.0000   1.0000   1.0000   1.0000   1.0000   1.0000   1.0000   1.0000
     1.0000   1.0000   1.0000   1.0000   1.0000   1.0000   1.0000   1.0000
     1.0000   1.0000   1.0000   1.0000   1.0000   1.0000   1.0000   1.0000
     1.0000   1.0000   1.0000   1.0000   1.0000   1.0000   1.0000   1.0000
     1.0000   1.0000   1.0000   1.0000   1.0000   1.0000   1.0000   1.0000
     1.0000   1.0000   1.0000   1.0000   1.0000   1.0000   1.0000   1.0000
     1.0000   1.0000   1.0000   1.0000   1.0000   1.0000   1.0000   1.0000
     1.0000   1.0000   1.0000   1.0000   1.0000   1.0000   1.0000   1.0000
     1.0000   1.0000   1.0000   1.0000   1.0000   1.0000   1.0000   1.0000
     1.0000   1.0000   1.0000   1.0000   0.0000   0.0000   0.0000   0.0000
     0.0000   0.0000   0.0000   0.0000   0.0000   0.0000   0.0000   0.0000
     0.0000   0.0000   0.0000   0.0000   0.0000

          k = 0.0000 0.2000 0.0000 ( 10076 PWs)   bands (ev):

   -48.9484 -48.9470 -48.9465 -48.9448 -23.2743 -23.2598 -23.2542 -23.2485
   -23.2473 -23.2432 -23.1914 -23.1866 -23.1855 -23.1845 -23.1809 -23.1798
   -22.0880 -22.0613 -22.0590 -22.0453  -6.8560  -6.7267  -6.4117  -6.0628
    -6.0375  -5.9533  -5.7955  -5.7322  -5.5635  -5.4276  -5.4217  -5.3709
    -4.3321  -4.2567  -4.1527  -4.1137  -4.0903  -4.0714  -4.0469  -4.0022
    -3.9589  -3.7735  -3.7122  -3.6613   5.2479   5.2819   5.4203   5.4393
     5.5677   5.6885   5.8137   6.1626   6.3022   6.3725   6.8813   7.2440
     7.2545   7.3014   7.4751   7.4877   7.6334   7.6481   7.7391   8.5386
     8.5787   8.6401   8.6498   8.7736   8.7771   8.9123   8.9223   9.1194
     9.1947   9.2930   9.4530   9.5719  10.0137  10.0253  10.0371  10.1266
    11.9627  12.0707  12.2261  12.3904  14.1171  14.1317  14.2544  14.3602
    14.8596  15.0372  15.0999  15.2118  15.7714  16.0105  16.1075  16.1096
    16.1322  16.3698  16.5592  17.3235  17.4203

     occupation numbers 
     1.0000   1.0000   1.0000   1.0000   1.0000   1.0000   1.0000   1.0000
     1.0000   1.0000   1.0000   1.0000   1.0000   1.0000   1.0000   1.0000
     1.0000   1.0000   1.0000   1.0000   1.0000   1.0000   1.0000   1.0000
     1.0000   1.0000   1.0000   1.0000   1.0000   1.0000   1.0000   1.0000
     1.0000   1.0000   1.0000   1.0000   1.0000   1.0000   1.0000   1.0000
     1.0000   1.0000   1.0000   1.0000   1.0000   1.0000   1.0000   1.0000
     1.0000   1.0000   1.0000   1.0000   1.0000   1.0000   1.0000   1.0000
     1.0000   1.0000   1.0000   1.0000   1.0000   1.0000   1.0000   1.0000
     1.0000   1.0000   1.0000   1.0000   1.0000   1.0000   1.0000   1.0000
     1.0000   1.0000   1.0000   1.0000   1.0000   1.0000   1.0000   1.0000
     1.0000   1.0000   1.0000   1.0000   0.0000   0.0000   0.0000   0.0000
     0.0000   0.0000   0.0000   0.0000   0.0000   0.0000   0.0000   0.0000
     0.0000   0.0000   0.0000   0.0000   0.0000

          k = 0.0000 0.2000 0.1414 ( 10060 PWs)   bands (ev):

   -48.9484 -48.9472 -48.9461 -48.9448 -23.2662 -23.2535 -23.2523 -23.2489
   -23.2468 -23.2435 -23.1947 -23.1905 -23.1891 -23.1854 -23.1842 -23.1813
   -22.0854 -22.0638 -22.0577 -22.0466  -6.8294  -6.7099  -6.3377  -6.0489
    -6.0308  -5.9645  -5.7617  -5.7117  -5.6558  -5.5067  -5.4406  -5.4265
    -4.2756  -4.2652  -4.1125  -4.0995  -4.0898  -4.0868  -4.0355  -3.9722
    -3.9719  -3.8160  -3.7368  -3.6911   5.4221   5.4375   5.4457   5.5284
     5.5888   5.7344   5.8543   6.1989   6.3618   6.3628   6.9558   7.0784
     7.1288   7.3107   7.3879   7.5326   7.6074   7.6170   7.6765   8.3339
     8.4837   8.5001   8.5773   8.7837   8.8814   8.9625   9.0339   9.0766
     9.2103   9.2174   9.4173   9.4202   9.9592   9.9718  10.0283  10.0842
    12.1685  12.2779  12.2912  12.3733  14.0604  14.1302  14.1892  14.1997
    14.8781  14.9880  15.0474  15.0774  16.1050  16.1117  16.1167  16.1626
    16.2708  16.5208  16.9535  17.5282  17.5557

     occupation numbers 
     1.0000   1.0000   1.0000   1.0000   1.0000   1.0000   1.0000   1.0000
     1.0000   1.0000   1.0000   1.0000   1.0000   1.0000   1.0000   1.0000
     1.0000   1.0000   1.0000   1.0000   1.0000   1.0000   1.0000   1.0000
     1.0000   1.0000   1.0000   1.0000   1.0000   1.0000   1.0000   1.0000
     1.0000   1.0000   1.0000   1.0000   1.0000   1.0000   1.0000   1.0000
     1.0000   1.0000   1.0000   1.0000   1.0000   1.0000   1.0000   1.0000
     1.0000   1.0000   1.0000   1.0000   1.0000   1.0000   1.0000   1.0000
     1.0000   1.0000   1.0000   1.0000   1.0000   1.0000   1.0000   1.0000
     1.0000   1.0000   1.0000   1.0000   1.0000   1.0000   1.0000   1.0000
     1.0000   1.0000   1.0000   1.0000   1.0000   1.0000   1.0000   1.0000
     1.0000   1.0000   1.0000   1.0000   0.0000   0.0000   0.0000   0.0000
     0.0000   0.0000   0.0000   0.0000   0.0000   0.0000   0.0000   0.0000
     0.0000   0.0000   0.0000   0.0000   0.0000

          k = 0.0000 0.2000 0.2828 ( 10071 PWs)   bands (ev):

   -48.9480 -48.9476 -48.9458 -48.9453 -23.2524 -23.2505 -23.2458 -23.2445
   -23.2440 -23.2326 -23.2168 -23.2081 -23.1894 -23.1878 -23.1832 -23.1822
   -22.0786 -22.0703 -22.0543 -22.0501  -6.7647  -6.7090  -6.1416  -6.0126
    -5.9881  -5.9731  -5.8539  -5.7522  -5.6723  -5.5960  -5.5485  -5.5146
    -4.2550  -4.1761  -4.1342  -4.1109  -4.0685  -4.0447  -4.0051  -3.9324
    -3.9303  -3.8805  -3.8136  -3.7722   5.4267   5.4326   5.6163   5.6202
     5.8773   6.0416   6.1704   6.3516   6.5401   6.5810   6.7440   6.8156
     6.9274   7.1435   7.3942   7.4396   7.4543   7.5640   7.7266   7.7979
     8.0916   8.1067   8.6383   8.7636   8.9976   9.0588   9.1760   9.2241
     9.2412   9.3096   9.3260   9.4116   9.7020   9.7596  10.0374  10.0525
    12.2710  12.3284  12.8230  12.8580  13.5206  13.5529  14.3988  14.4015
    14.7099  14.7140  14.9370  15.0148  16.1145  16.1156  16.5819  16.6655
    16.7905  17.1179  17.1610  17.1668  17.4394

     occupation numbers 
     1.0000   1.0000   1.0000   1.0000   1.0000   1.0000   1.0000   1.0000
     1.0000   1.0000   1.0000   1.0000   1.0000   1.0000   1.0000   1.0000
     1.0000   1.0000   1.0000   1.0000   1.0000   1.0000   1.0000   1.0000
     1.0000   1.0000   1.0000   1.0000   1.0000   1.0000   1.0000   1.0000
     1.0000   1.0000   1.0000   1.0000   1.0000   1.0000   1.0000   1.0000
     1.0000   1.0000   1.0000   1.0000   1.0000   1.0000   1.0000   1.0000
     1.0000   1.0000   1.0000   1.0000   1.0000   1.0000   1.0000   1.0000
     1.0000   1.0000   1.0000   1.0000   1.0000   1.0000   1.0000   1.0000
     1.0000   1.0000   1.0000   1.0000   1.0000   1.0000   1.0000   1.0000
     1.0000   1.0000   1.0000   1.0000   1.0000   1.0000   1.0000   1.0000
     1.0000   1.0000   1.0000   1.0000   0.9683   0.8625   0.0000   0.0000
     0.0000   0.0000   0.0000   0.0000   0.0000   0.0000   0.0000   0.0000
     0.0000   0.0000   0.0000   0.0000   0.0000

          k = 0.0000 0.2000 0.4243 ( 10071 PWs)   bands (ev):

   -48.9480 -48.9476 -48.9458 -48.9453 -23.2524 -23.2505 -23.2458 -23.2445
   -23.2440 -23.2326 -23.2168 -23.2081 -23.1894 -23.1878 -23.1832 -23.1822
   -22.0786 -22.0703 -22.0543 -22.0501  -6.7647  -6.7090  -6.1416  -6.0126
    -5.9881  -5.9731  -5.8539  -5.7522  -5.6723  -5.5960  -5.5485  -5.5146
    -4.2550  -4.1761  -4.1342  -4.1109  -4.0685  -4.0447  -4.0051  -3.9324
    -3.9303  -3.8805  -3.8136  -3.7722   5.4267   5.4326   5.6163   5.6202
     5.8773   6.0416   6.1704   6.3516   6.5401   6.5810   6.7441   6.8156
     6.9274   7.1435   7.3942   7.4396   7.4543   7.5640   7.7266   7.7979
     8.0916   8.1067   8.6383   8.7636   8.9976   9.0588   9.1760   9.2241
     9.2412   9.3096   9.3260   9.4116   9.7020   9.7596  10.0374  10.0525
    12.2710  12.3284  12.8230  12.8580  13.5206  13.5529  14.3988  14.4015
    14.7099  14.7140  14.9370  15.0148  16.1145  16.1156  16.5819  16.6655
    16.7905  17.1179  17.1610  17.1668  17.4394

     occupation numbers 
     1.0000   1.0000   1.0000   1.0000   1.0000   1.0000   1.0000   1.0000
     1.0000   1.0000   1.0000   1.0000   1.0000   1.0000   1.0000   1.0000
     1.0000   1.0000   1.0000   1.0000   1.0000   1.0000   1.0000   1.0000
     1.0000   1.0000   1.0000   1.0000   1.0000   1.0000   1.0000   1.0000
     1.0000   1.0000   1.0000   1.0000   1.0000   1.0000   1.0000   1.0000
     1.0000   1.0000   1.0000   1.0000   1.0000   1.0000   1.0000   1.0000
     1.0000   1.0000   1.0000   1.0000   1.0000   1.0000   1.0000   1.0000
     1.0000   1.0000   1.0000   1.0000   1.0000   1.0000   1.0000   1.0000
     1.0000   1.0000   1.0000   1.0000   1.0000   1.0000   1.0000   1.0000
     1.0000   1.0000   1.0000   1.0000   1.0000   1.0000   1.0000   1.0000
     1.0000   1.0000   1.0000   1.0000   0.9683   0.8625   0.0000   0.0000
     0.0000   0.0000   0.0000   0.0000   0.0000   0.0000   0.0000   0.0000
     0.0000   0.0000   0.0000   0.0000   0.0000

          k = 0.0000 0.2000 0.5657 ( 10060 PWs)   bands (ev):

   -48.9484 -48.9472 -48.9461 -48.9448 -23.2662 -23.2535 -23.2523 -23.2489
   -23.2468 -23.2435 -23.1947 -23.1905 -23.1891 -23.1854 -23.1842 -23.1813
   -22.0854 -22.0638 -22.0577 -22.0466  -6.8294  -6.7099  -6.3377  -6.0489
    -6.0308  -5.9645  -5.7617  -5.7117  -5.6558  -5.5067  -5.4406  -5.4265
    -4.2756  -4.2652  -4.1125  -4.0995  -4.0898  -4.0868  -4.0355  -3.9722
    -3.9719  -3.8160  -3.7368  -3.6911   5.4221   5.4375   5.4457   5.5284
     5.5888   5.7344   5.8543   6.1989   6.3618   6.3628   6.9558   7.0784
     7.1288   7.3107   7.3879   7.5326   7.6074   7.6170   7.6766   8.3339
     8.4837   8.5001   8.5773   8.7837   8.8814   8.9625   9.0339   9.0766
     9.2103   9.2174   9.4173   9.4202   9.9592   9.9718  10.0283  10.0842
    12.1685  12.2779  12.2912  12.3733  14.0604  14.1302  14.1892  14.1997
    14.8781  14.9880  15.0474  15.0774  16.1050  16.1117  16.1167  16.1626
    16.2708  16.5208  16.9535  17.5282  17.5557

     occupation numbers 
     1.0000   1.0000   1.0000   1.0000   1.0000   1.0000   1.0000   1.0000
     1.0000   1.0000   1.0000   1.0000   1.0000   1.0000   1.0000   1.0000
     1.0000   1.0000   1.0000   1.0000   1.0000   1.0000   1.0000   1.0000
     1.0000   1.0000   1.0000   1.0000   1.0000   1.0000   1.0000   1.0000
     1.0000   1.0000   1.0000   1.0000   1.0000   1.0000   1.0000   1.0000
     1.0000   1.0000   1.0000   1.0000   1.0000   1.0000   1.0000   1.0000
     1.0000   1.0000   1.0000   1.0000   1.0000   1.0000   1.0000   1.0000
     1.0000   1.0000   1.0000   1.0000   1.0000   1.0000   1.0000   1.0000
     1.0000   1.0000   1.0000   1.0000   1.0000   1.0000   1.0000   1.0000
     1.0000   1.0000   1.0000   1.0000   1.0000   1.0000   1.0000   1.0000
     1.0000   1.0000   1.0000   1.0000   0.0000   0.0000   0.0000   0.0000
     0.0000   0.0000   0.0000   0.0000   0.0000   0.0000   0.0000   0.0000
     0.0000   0.0000   0.0000   0.0000   0.0000

          k = 0.0000 0.4000 0.0000 ( 10072 PWs)   bands (ev):

   -48.9477 -48.9471 -48.9463 -48.9456 -23.2685 -23.2630 -23.2380 -23.2297
   -23.2280 -23.2241 -23.2141 -23.2060 -23.2040 -23.2002 -23.1837 -23.1817
   -22.0749 -22.0639 -22.0581 -22.0520  -6.6999  -6.6030  -6.5178  -6.0413
    -5.9568  -5.9348  -5.8639  -5.7854  -5.7564  -5.5638  -5.5634  -5.5491
    -4.2719  -4.1883  -4.1257  -4.0773  -4.0052  -3.9556  -3.9045  -3.8859
    -3.8430  -3.8246  -3.7825  -3.7560   5.2776   5.2791   6.0640   6.0801
     6.1169   6.1430   6.2724   6.3766   6.4692   6.4884   6.7834   6.8068
     6.8615   6.9453   7.0084   7.0536   7.4064   7.5560   7.6236   7.6449
     7.8811   8.1748   8.4649   8.6813   8.7847   8.9538   8.9540   9.1307
     9.2300   9.2422   9.3678   9.4654   9.5455   9.6950   9.7029   9.9184
    12.6575  12.8477  13.1726  13.3816  13.4861  13.6109  14.0921  14.3689
    14.4465  14.5230  14.7493  14.8639  16.0653  16.3866  16.7563  16.9646
    17.3380  17.4650  17.5218  17.5693  17.9103

     occupation numbers 
     1.0000   1.0000   1.0000   1.0000   1.0000   1.0000   1.0000   1.0000
     1.0000   1.0000   1.0000   1.0000   1.0000   1.0000   1.0000   1.0000
     1.0000   1.0000   1.0000   1.0000   1.0000   1.0000   1.0000   1.0000
     1.0000   1.0000   1.0000   1.0000   1.0000   1.0000   1.0000   1.0000
     1.0000   1.0000   1.0000   1.0000   1.0000   1.0000   1.0000   1.0000
     1.0000   1.0000   1.0000   1.0000   1.0000   1.0000   1.0000   1.0000
     1.0000   1.0000   1.0000   1.0000   1.0000   1.0000   1.0000   1.0000
     1.0000   1.0000   1.0000   1.0000   1.0000   1.0000   1.0000   1.0000
     1.0000   1.0000   1.0000   1.0000   1.0000   1.0000   1.0000   1.0000
     1.0000   1.0000   1.0000   1.0000   1.0000   1.0000   1.0000   1.0000
     1.0000   1.0000   1.0000   1.0000   0.9940   0.2684   0.0000   0.0000
     0.0000   0.0000   0.0000   0.0000   0.0000   0.0000   0.0000   0.0000
     0.0000   0.0000   0.0000   0.0000   0.0000

          k = 0.0000 0.4000 0.1414 ( 10078 PWs)   bands (ev):

   -48.9477 -48.9468 -48.9467 -48.9455 -23.2607 -23.2554 -23.2371 -23.2304
   -23.2276 -23.2243 -23.2135 -23.2069 -23.2036 -23.2007 -23.1919 -23.1895
   -22.0732 -22.0627 -22.0597 -22.0531  -6.6516  -6.5380  -6.5072  -6.0696
    -5.9438  -5.9374  -5.8540  -5.7890  -5.7514  -5.6309  -5.5965  -5.5940
    -4.2335  -4.1732  -4.1349  -4.1065  -4.0165  -4.0103  -3.9143  -3.8890
    -3.8425  -3.8184  -3.7531  -3.7424   5.5249   5.5252   6.0624   6.0800
     6.1188   6.1390   6.3366   6.4696   6.5093   6.5392   6.7525   6.8314
     6.8438   6.9966   7.0062   7.0684   7.2081   7.4300   7.4323   7.5614
     7.8378   7.9108   8.3348   8.4938   8.8958   8.9764   9.1263   9.1553
     9.1628   9.2657   9.3718   9.4929   9.5437   9.6734   9.6928   9.8931
    12.7976  12.9553  13.1978  13.3747  13.5622  13.6811  14.1090  14.2824
    14.3091  14.3427  14.6210  14.6769  16.4792  16.8086  16.8762  17.0652
    17.3362  17.4746  17.5212  17.6406  17.9305

     occupation numbers 
     1.0000   1.0000   1.0000   1.0000   1.0000   1.0000   1.0000   1.0000
     1.0000   1.0000   1.0000   1.0000   1.0000   1.0000   1.0000   1.0000
     1.0000   1.0000   1.0000   1.0000   1.0000   1.0000   1.0000   1.0000
     1.0000   1.0000   1.0000   1.0000   1.0000   1.0000   1.0000   1.0000
     1.0000   1.0000   1.0000   1.0000   1.0000   1.0000   1.0000   1.0000
     1.0000   1.0000   1.0000   1.0000   1.0000   1.0000   1.0000   1.0000
     1.0000   1.0000   1.0000   1.0000   1.0000   1.0000   1.0000   1.0000
     1.0000   1.0000   1.0000   1.0000   1.0000   1.0000   1.0000   1.0000
     1.0000   1.0000   1.0000   1.0000   1.0000   1.0000   1.0000   1.0000
     1.0000   1.0000   1.0000   1.0000   1.0000   1.0000   1.0000   1.0000
     1.0000   1.0000   1.0000   1.0000   0.7996   0.0116   0.0000   0.0000
     0.0000   0.0000   0.0000   0.0000   0.0000   0.0000   0.0000   0.0000
     0.0000   0.0000   0.0000   0.0000   0.0000

          k = 0.0000 0.4000 0.2828 ( 10090 PWs)   bands (ev):

   -48.9475 -48.9469 -48.9465 -48.9459 -23.2403 -23.2360 -23.2347 -23.2319
   -23.2266 -23.2253 -23.2151 -23.2112 -23.2096 -23.2074 -23.2028 -23.2015
   -22.0690 -22.0638 -22.0598 -22.0561  -6.5524  -6.5009  -6.3684  -6.1808
    -5.9105  -5.9095  -5.8682  -5.7975  -5.7532  -5.7184  -5.6745  -5.6736
    -4.1542  -4.1535  -4.1494  -4.1405  -4.0350  -4.0292  -3.9869  -3.9764
    -3.7759  -3.7717  -3.7455  -3.7390   6.0571   6.0730   6.1239   6.1312
     6.1317   6.1348   6.5232   6.5406   6.5793   6.7410   6.7417   6.8106
     6.8421   6.9498   6.9978   7.0001   7.0663   7.1796   7.1818   7.4940
     7.4960   7.5285   7.7940   7.9207   9.1352   9.1625   9.1920   9.2069
     9.3329   9.3612   9.4552   9.5328   9.5347   9.5369   9.7100   9.8060
    13.1834  13.2911  13.2919  13.3197  13.7778  13.8060  13.8521  13.9075
    14.1995  14.2449  14.2756  14.2870  17.2021  17.3292  17.4054  17.4467
    17.4852  17.5243  17.5394  17.6438  17.7146

     occupation numbers 
     1.0000   1.0000   1.0000   1.0000   1.0000   1.0000   1.0000   1.0000
     1.0000   1.0000   1.0000   1.0000   1.0000   1.0000   1.0000   1.0000
     1.0000   1.0000   1.0000   1.0000   1.0000   1.0000   1.0000   1.0000
     1.0000   1.0000   1.0000   1.0000   1.0000   1.0000   1.0000   1.0000
     1.0000   1.0000   1.0000   1.0000   1.0000   1.0000   1.0000   1.0000
     1.0000   1.0000   1.0000   1.0000   1.0000   1.0000   1.0000   1.0000
     1.0000   1.0000   1.0000   1.0000   1.0000   1.0000   1.0000   1.0000
     1.0000   1.0000   1.0000   1.0000   1.0000   1.0000   1.0000   1.0000
     1.0000   1.0000   1.0000   1.0000   1.0000   1.0000   1.0000   1.0000
     1.0000   1.0000   1.0000   1.0000   1.0000   1.0000   1.0000   1.0000
     1.0000   1.0000   1.0000   1.0000   0.0001   0.0000   0.0000   0.0000
     0.0000   0.0000   0.0000   0.0000   0.0000   0.0000   0.0000   0.0000
     0.0000   0.0000   0.0000   0.0000   0.0000

          k = 0.0000 0.4000 0.4243 ( 10090 PWs)   bands (ev):

   -48.9475 -48.9469 -48.9465 -48.9459 -23.2403 -23.2359 -23.2347 -23.2319
   -23.2266 -23.2253 -23.2151 -23.2112 -23.2095 -23.2074 -23.2028 -23.2015
   -22.0690 -22.0638 -22.0598 -22.0561  -6.5524  -6.5009  -6.3684  -6.1808
    -5.9105  -5.9095  -5.8682  -5.7975  -5.7532  -5.7184  -5.6745  -5.6736
    -4.1542  -4.1535  -4.1494  -4.1405  -4.0350  -4.0292  -3.9869  -3.9764
    -3.7759  -3.7717  -3.7455  -3.7390   6.0571   6.0730   6.1239   6.1312
     6.1317   6.1348   6.5232   6.5406   6.5793   6.7410   6.7417   6.8106
     6.8421   6.9498   6.9978   7.0001   7.0663   7.1796   7.1818   7.4940
     7.4960   7.5285   7.7940   7.9207   9.1352   9.1625   9.1920   9.2069
     9.3329   9.3612   9.4552   9.5328   9.5347   9.5369   9.7100   9.8060
    13.1834  13.2911  13.2919  13.3197  13.7777  13.8061  13.8522  13.9075
    14.1995  14.2449  14.2756  14.2870  17.2021  17.3292  17.4054  17.4467
    17.4852  17.5243  17.5394  17.6438  17.7146

     occupation numbers 
     1.0000   1.0000   1.0000   1.0000   1.0000   1.0000   1.0000   1.0000
     1.0000   1.0000   1.0000   1.0000   1.0000   1.0000   1.0000   1.0000
     1.0000   1.0000   1.0000   1.0000   1.0000   1.0000   1.0000   1.0000
     1.0000   1.0000   1.0000   1.0000   1.0000   1.0000   1.0000   1.0000
     1.0000   1.0000   1.0000   1.0000   1.0000   1.0000   1.0000   1.0000
     1.0000   1.0000   1.0000   1.0000   1.0000   1.0000   1.0000   1.0000
     1.0000   1.0000   1.0000   1.0000   1.0000   1.0000   1.0000   1.0000
     1.0000   1.0000   1.0000   1.0000   1.0000   1.0000   1.0000   1.0000
     1.0000   1.0000   1.0000   1.0000   1.0000   1.0000   1.0000   1.0000
     1.0000   1.0000   1.0000   1.0000   1.0000   1.0000   1.0000   1.0000
     1.0000   1.0000   1.0000   1.0000   0.0001   0.0000   0.0000   0.0000
     0.0000   0.0000   0.0000   0.0000   0.0000   0.0000   0.0000   0.0000
     0.0000   0.0000   0.0000   0.0000   0.0000

          k = 0.0000 0.4000 0.5657 ( 10078 PWs)   bands (ev):

   -48.9477 -48.9468 -48.9467 -48.9455 -23.2607 -23.2554 -23.2371 -23.2305
   -23.2276 -23.2243 -23.2135 -23.2069 -23.2036 -23.2007 -23.1919 -23.1895
   -22.0732 -22.0627 -22.0597 -22.0531  -6.6516  -6.5380  -6.5072  -6.0696
    -5.9438  -5.9374  -5.8540  -5.7890  -5.7514  -5.6309  -5.5965  -5.5940
    -4.2335  -4.1732  -4.1349  -4.1065  -4.0165  -4.0103  -3.9143  -3.8890
    -3.8425  -3.8184  -3.7531  -3.7424   5.5249   5.5252   6.0624   6.0800
     6.1188   6.1390   6.3366   6.4696   6.5093   6.5392   6.7525   6.8314
     6.8438   6.9966   7.0062   7.0684   7.2081   7.4300   7.4323   7.5614
     7.8378   7.9108   8.3348   8.4938   8.8958   8.9764   9.1263   9.1553
     9.1628   9.2657   9.3718   9.4929   9.5437   9.6734   9.6928   9.8931
    12.7976  12.9553  13.1978  13.3747  13.5622  13.6811  14.1090  14.2824
    14.3091  14.3427  14.6210  14.6769  16.4792  16.8086  16.8762  17.0652
    17.3362  17.4746  17.5212  17.6406  17.9305

     occupation numbers 
     1.0000   1.0000   1.0000   1.0000   1.0000   1.0000   1.0000   1.0000
     1.0000   1.0000   1.0000   1.0000   1.0000   1.0000   1.0000   1.0000
     1.0000   1.0000   1.0000   1.0000   1.0000   1.0000   1.0000   1.0000
     1.0000   1.0000   1.0000   1.0000   1.0000   1.0000   1.0000   1.0000
     1.0000   1.0000   1.0000   1.0000   1.0000   1.0000   1.0000   1.0000
     1.0000   1.0000   1.0000   1.0000   1.0000   1.0000   1.0000   1.0000
     1.0000   1.0000   1.0000   1.0000   1.0000   1.0000   1.0000   1.0000
     1.0000   1.0000   1.0000   1.0000   1.0000   1.0000   1.0000   1.0000
     1.0000   1.0000   1.0000   1.0000   1.0000   1.0000   1.0000   1.0000
     1.0000   1.0000   1.0000   1.0000   1.0000   1.0000   1.0000   1.0000
     1.0000   1.0000   1.0000   1.0000   0.7996   0.0116   0.0000   0.0000
     0.0000   0.0000   0.0000   0.0000   0.0000   0.0000   0.0000   0.0000
     0.0000   0.0000   0.0000   0.0000   0.0000

          k = 0.0000 0.6000 0.0000 ( 10072 PWs)   bands (ev):

   -48.9477 -48.9471 -48.9463 -48.9456 -23.2685 -23.2630 -23.2380 -23.2297
   -23.2280 -23.2241 -23.2141 -23.2060 -23.2040 -23.2002 -23.1837 -23.1817
   -22.0749 -22.0639 -22.0581 -22.0520  -6.6999  -6.6030  -6.5178  -6.0413
    -5.9568  -5.9348  -5.8639  -5.7854  -5.7564  -5.5638  -5.5634  -5.5491
    -4.2719  -4.1883  -4.1257  -4.0773  -4.0052  -3.9556  -3.9045  -3.8859
    -3.8430  -3.8246  -3.7825  -3.7560   5.2776   5.2791   6.0640   6.0801
     6.1169   6.1430   6.2724   6.3766   6.4692   6.4884   6.7834   6.8068
     6.8615   6.9453   7.0084   7.0536   7.4064   7.5560   7.6236   7.6449
     7.8811   8.1748   8.4649   8.6813   8.7847   8.9538   8.9540   9.1307
     9.2300   9.2422   9.3678   9.4654   9.5455   9.6950   9.7029   9.9184
    12.6575  12.8477  13.1726  13.3816  13.4861  13.6109  14.0921  14.3689
    14.4465  14.5230  14.7493  14.8639  16.0653  16.3866  16.7563  16.9646
    17.3380  17.4650  17.5218  17.5693  17.9103

     occupation numbers 
     1.0000   1.0000   1.0000   1.0000   1.0000   1.0000   1.0000   1.0000
     1.0000   1.0000   1.0000   1.0000   1.0000   1.0000   1.0000   1.0000
     1.0000   1.0000   1.0000   1.0000   1.0000   1.0000   1.0000   1.0000
     1.0000   1.0000   1.0000   1.0000   1.0000   1.0000   1.0000   1.0000
     1.0000   1.0000   1.0000   1.0000   1.0000   1.0000   1.0000   1.0000
     1.0000   1.0000   1.0000   1.0000   1.0000   1.0000   1.0000   1.0000
     1.0000   1.0000   1.0000   1.0000   1.0000   1.0000   1.0000   1.0000
     1.0000   1.0000   1.0000   1.0000   1.0000   1.0000   1.0000   1.0000
     1.0000   1.0000   1.0000   1.0000   1.0000   1.0000   1.0000   1.0000
     1.0000   1.0000   1.0000   1.0000   1.0000   1.0000   1.0000   1.0000
     1.0000   1.0000   1.0000   1.0000   0.9940   0.2684   0.0000   0.0000
     0.0000   0.0000   0.0000   0.0000   0.0000   0.0000   0.0000   0.0000
     0.0000   0.0000   0.0000   0.0000   0.0000

          k = 0.0000 0.6000 0.1414 ( 10078 PWs)   bands (ev):

   -48.9477 -48.9468 -48.9467 -48.9455 -23.2607 -23.2554 -23.2371 -23.2305
   -23.2276 -23.2243 -23.2135 -23.2069 -23.2036 -23.2007 -23.1919 -23.1895
   -22.0732 -22.0627 -22.0597 -22.0531  -6.6516  -6.5380  -6.5072  -6.0696
    -5.9438  -5.9374  -5.8540  -5.7890  -5.7514  -5.6309  -5.5965  -5.5940
    -4.2335  -4.1732  -4.1349  -4.1065  -4.0165  -4.0103  -3.9143  -3.8890
    -3.8425  -3.8184  -3.7531  -3.7424   5.5249   5.5252   6.0624   6.0800
     6.1188   6.1390   6.3366   6.4696   6.5093   6.5392   6.7525   6.8314
     6.8438   6.9966   7.0062   7.0684   7.2081   7.4300   7.4323   7.5614
     7.8378   7.9108   8.3348   8.4938   8.8958   8.9764   9.1263   9.1553
     9.1628   9.2657   9.3718   9.4929   9.5437   9.6734   9.6928   9.8931
    12.7976  12.9553  13.1978  13.3747  13.5622  13.6811  14.1090  14.2824
    14.3091  14.3427  14.6210  14.6769  16.4792  16.8086  16.8762  17.0652
    17.3362  17.4746  17.5212  17.6406  17.9305

     occupation numbers 
     1.0000   1.0000   1.0000   1.0000   1.0000   1.0000   1.0000   1.0000
     1.0000   1.0000   1.0000   1.0000   1.0000   1.0000   1.0000   1.0000
     1.0000   1.0000   1.0000   1.0000   1.0000   1.0000   1.0000   1.0000
     1.0000   1.0000   1.0000   1.0000   1.0000   1.0000   1.0000   1.0000
     1.0000   1.0000   1.0000   1.0000   1.0000   1.0000   1.0000   1.0000
     1.0000   1.0000   1.0000   1.0000   1.0000   1.0000   1.0000   1.0000
     1.0000   1.0000   1.0000   1.0000   1.0000   1.0000   1.0000   1.0000
     1.0000   1.0000   1.0000   1.0000   1.0000   1.0000   1.0000   1.0000
     1.0000   1.0000   1.0000   1.0000   1.0000   1.0000   1.0000   1.0000
     1.0000   1.0000   1.0000   1.0000   1.0000   1.0000   1.0000   1.0000
     1.0000   1.0000   1.0000   1.0000   0.7996   0.0116   0.0000   0.0000
     0.0000   0.0000   0.0000   0.0000   0.0000   0.0000   0.0000   0.0000
     0.0000   0.0000   0.0000   0.0000   0.0000

          k = 0.0000 0.6000 0.2828 ( 10090 PWs)   bands (ev):

   -48.9475 -48.9469 -48.9465 -48.9459 -23.2403 -23.2359 -23.2347 -23.2319
   -23.2266 -23.2253 -23.2151 -23.2112 -23.2095 -23.2074 -23.2028 -23.2015
   -22.0690 -22.0638 -22.0598 -22.0561  -6.5524  -6.5009  -6.3684  -6.1808
    -5.9105  -5.9095  -5.8682  -5.7975  -5.7532  -5.7184  -5.6745  -5.6736
    -4.1542  -4.1535  -4.1494  -4.1405  -4.0350  -4.0292  -3.9869  -3.9764
    -3.7759  -3.7717  -3.7455  -3.7390   6.0571   6.0730   6.1239   6.1312
     6.1317   6.1348   6.5232   6.5406   6.5793   6.7410   6.7417   6.8106
     6.8421   6.9498   6.9978   7.0001   7.0663   7.1796   7.1818   7.4940
     7.4960   7.5285   7.7940   7.9207   9.1352   9.1625   9.1920   9.2069
     9.3329   9.3612   9.4552   9.5328   9.5347   9.5369   9.7100   9.8060
    13.1834  13.2911  13.2919  13.3197  13.7777  13.8061  13.8522  13.9075
    14.1995  14.2449  14.2756  14.2870  17.2021  17.3292  17.4054  17.4467
    17.4852  17.5243  17.5394  17.6438  17.7146

     occupation numbers 
     1.0000   1.0000   1.0000   1.0000   1.0000   1.0000   1.0000   1.0000
     1.0000   1.0000   1.0000   1.0000   1.0000   1.0000   1.0000   1.0000
     1.0000   1.0000   1.0000   1.0000   1.0000   1.0000   1.0000   1.0000
     1.0000   1.0000   1.0000   1.0000   1.0000   1.0000   1.0000   1.0000
     1.0000   1.0000   1.0000   1.0000   1.0000   1.0000   1.0000   1.0000
     1.0000   1.0000   1.0000   1.0000   1.0000   1.0000   1.0000   1.0000
     1.0000   1.0000   1.0000   1.0000   1.0000   1.0000   1.0000   1.0000
     1.0000   1.0000   1.0000   1.0000   1.0000   1.0000   1.0000   1.0000
     1.0000   1.0000   1.0000   1.0000   1.0000   1.0000   1.0000   1.0000
     1.0000   1.0000   1.0000   1.0000   1.0000   1.0000   1.0000   1.0000
     1.0000   1.0000   1.0000   1.0000   0.0001   0.0000   0.0000   0.0000
     0.0000   0.0000   0.0000   0.0000   0.0000   0.0000   0.0000   0.0000
     0.0000   0.0000   0.0000   0.0000   0.0000

          k = 0.0000 0.6000 0.4243 ( 10090 PWs)   bands (ev):

   -48.9475 -48.9469 -48.9465 -48.9459 -23.2403 -23.2360 -23.2347 -23.2319
   -23.2266 -23.2253 -23.2151 -23.2112 -23.2096 -23.2074 -23.2028 -23.2015
   -22.0690 -22.0638 -22.0598 -22.0561  -6.5524  -6.5009  -6.3684  -6.1808
    -5.9105  -5.9095  -5.8682  -5.7975  -5.7532  -5.7184  -5.6745  -5.6736
    -4.1542  -4.1535  -4.1494  -4.1405  -4.0350  -4.0292  -3.9869  -3.9764
    -3.7759  -3.7717  -3.7455  -3.7390   6.0571   6.0730   6.1239   6.1312
     6.1317   6.1348   6.5232   6.5406   6.5793   6.7410   6.7417   6.8106
     6.8421   6.9498   6.9978   7.0001   7.0663   7.1796   7.1818   7.4940
     7.4960   7.5285   7.7940   7.9207   9.1352   9.1625   9.1920   9.2069
     9.3329   9.3612   9.4552   9.5328   9.5347   9.5369   9.7100   9.8060
    13.1834  13.2911  13.2919  13.3197  13.7778  13.8060  13.8521  13.9075
    14.1995  14.2449  14.2756  14.2870  17.2021  17.3292  17.4054  17.4467
    17.4852  17.5243  17.5394  17.6438  17.7146

     occupation numbers 
     1.0000   1.0000   1.0000   1.0000   1.0000   1.0000   1.0000   1.0000
     1.0000   1.0000   1.0000   1.0000   1.0000   1.0000   1.0000   1.0000
     1.0000   1.0000   1.0000   1.0000   1.0000   1.0000   1.0000   1.0000
     1.0000   1.0000   1.0000   1.0000   1.0000   1.0000   1.0000   1.0000
     1.0000   1.0000   1.0000   1.0000   1.0000   1.0000   1.0000   1.0000
     1.0000   1.0000   1.0000   1.0000   1.0000   1.0000   1.0000   1.0000
     1.0000   1.0000   1.0000   1.0000   1.0000   1.0000   1.0000   1.0000
     1.0000   1.0000   1.0000   1.0000   1.0000   1.0000   1.0000   1.0000
     1.0000   1.0000   1.0000   1.0000   1.0000   1.0000   1.0000   1.0000
     1.0000   1.0000   1.0000   1.0000   1.0000   1.0000   1.0000   1.0000
     1.0000   1.0000   1.0000   1.0000   0.0001   0.0000   0.0000   0.0000
     0.0000   0.0000   0.0000   0.0000   0.0000   0.0000   0.0000   0.0000
     0.0000   0.0000   0.0000   0.0000   0.0000

          k = 0.0000 0.6000 0.5657 ( 10078 PWs)   bands (ev):

   -48.9477 -48.9468 -48.9467 -48.9455 -23.2607 -23.2554 -23.2371 -23.2304
   -23.2276 -23.2243 -23.2135 -23.2069 -23.2036 -23.2007 -23.1919 -23.1895
   -22.0732 -22.0627 -22.0597 -22.0531  -6.6516  -6.5380  -6.5072  -6.0696
    -5.9438  -5.9374  -5.8540  -5.7890  -5.7514  -5.6309  -5.5965  -5.5940
    -4.2335  -4.1732  -4.1349  -4.1065  -4.0165  -4.0103  -3.9143  -3.8890
    -3.8425  -3.8184  -3.7531  -3.7424   5.5249   5.5252   6.0624   6.0800
     6.1188   6.1390   6.3366   6.4696   6.5093   6.5392   6.7525   6.8314
     6.8438   6.9966   7.0062   7.0684   7.2081   7.4300   7.4323   7.5614
     7.8378   7.9108   8.3348   8.4938   8.8958   8.9764   9.1263   9.1553
     9.1628   9.2657   9.3718   9.4929   9.5437   9.6734   9.6928   9.8931
    12.7976  12.9553  13.1978  13.3747  13.5622  13.6811  14.1090  14.2824
    14.3091  14.3427  14.6210  14.6769  16.4792  16.8086  16.8762  17.0652
    17.3362  17.4746  17.5212  17.6406  17.9305

     occupation numbers 
     1.0000   1.0000   1.0000   1.0000   1.0000   1.0000   1.0000   1.0000
     1.0000   1.0000   1.0000   1.0000   1.0000   1.0000   1.0000   1.0000
     1.0000   1.0000   1.0000   1.0000   1.0000   1.0000   1.0000   1.0000
     1.0000   1.0000   1.0000   1.0000   1.0000   1.0000   1.0000   1.0000
     1.0000   1.0000   1.0000   1.0000   1.0000   1.0000   1.0000   1.0000
     1.0000   1.0000   1.0000   1.0000   1.0000   1.0000   1.0000   1.0000
     1.0000   1.0000   1.0000   1.0000   1.0000   1.0000   1.0000   1.0000
     1.0000   1.0000   1.0000   1.0000   1.0000   1.0000   1.0000   1.0000
     1.0000   1.0000   1.0000   1.0000   1.0000   1.0000   1.0000   1.0000
     1.0000   1.0000   1.0000   1.0000   1.0000   1.0000   1.0000   1.0000
     1.0000   1.0000   1.0000   1.0000   0.7996   0.0116   0.0000   0.0000
     0.0000   0.0000   0.0000   0.0000   0.0000   0.0000   0.0000   0.0000
     0.0000   0.0000   0.0000   0.0000   0.0000

          k = 0.0000 0.8000 0.0000 ( 10076 PWs)   bands (ev):

   -48.9484 -48.9470 -48.9465 -48.9448 -23.2743 -23.2598 -23.2542 -23.2485
   -23.2473 -23.2432 -23.1914 -23.1866 -23.1855 -23.1845 -23.1809 -23.1798
   -22.0880 -22.0613 -22.0590 -22.0453  -6.8560  -6.7267  -6.4117  -6.0628
    -6.0375  -5.9533  -5.7955  -5.7322  -5.5635  -5.4276  -5.4217  -5.3709
    -4.3321  -4.2567  -4.1527  -4.1137  -4.0903  -4.0714  -4.0469  -4.0022
    -3.9589  -3.7735  -3.7122  -3.6613   5.2479   5.2819   5.4203   5.4393
     5.5677   5.6885   5.8137   6.1626   6.3022   6.3725   6.8813   7.2440
     7.2545   7.3014   7.4751   7.4877   7.6334   7.6481   7.7391   8.5386
     8.5787   8.6401   8.6498   8.7736   8.7771   8.9123   8.9223   9.1194
     9.1947   9.2930   9.4530   9.5719  10.0137  10.0253  10.0371  10.1266
    11.9627  12.0707  12.2261  12.3904  14.1171  14.1317  14.2544  14.3602
    14.8596  15.0372  15.0999  15.2118  15.7714  16.0105  16.1075  16.1096
    16.1322  16.3698  16.5592  17.3235  17.4203

     occupation numbers 
     1.0000   1.0000   1.0000   1.0000   1.0000   1.0000   1.0000   1.0000
     1.0000   1.0000   1.0000   1.0000   1.0000   1.0000   1.0000   1.0000
     1.0000   1.0000   1.0000   1.0000   1.0000   1.0000   1.0000   1.0000
     1.0000   1.0000   1.0000   1.0000   1.0000   1.0000   1.0000   1.0000
     1.0000   1.0000   1.0000   1.0000   1.0000   1.0000   1.0000   1.0000
     1.0000   1.0000   1.0000   1.0000   1.0000   1.0000   1.0000   1.0000
     1.0000   1.0000   1.0000   1.0000   1.0000   1.0000   1.0000   1.0000
     1.0000   1.0000   1.0000   1.0000   1.0000   1.0000   1.0000   1.0000
     1.0000   1.0000   1.0000   1.0000   1.0000   1.0000   1.0000   1.0000
     1.0000   1.0000   1.0000   1.0000   1.0000   1.0000   1.0000   1.0000
     1.0000   1.0000   1.0000   1.0000   0.0000   0.0000   0.0000   0.0000
     0.0000   0.0000   0.0000   0.0000   0.0000   0.0000   0.0000   0.0000
     0.0000   0.0000   0.0000   0.0000   0.0000

          k = 0.0000 0.8000 0.1414 ( 10060 PWs)   bands (ev):

   -48.9484 -48.9472 -48.9461 -48.9448 -23.2662 -23.2535 -23.2523 -23.2489
   -23.2468 -23.2435 -23.1947 -23.1905 -23.1891 -23.1854 -23.1842 -23.1813
   -22.0854 -22.0638 -22.0577 -22.0466  -6.8294  -6.7099  -6.3377  -6.0489
    -6.0308  -5.9645  -5.7617  -5.7117  -5.6558  -5.5067  -5.4406  -5.4265
    -4.2756  -4.2652  -4.1125  -4.0995  -4.0898  -4.0868  -4.0355  -3.9722
    -3.9719  -3.8160  -3.7368  -3.6911   5.4221   5.4375   5.4457   5.5284
     5.5888   5.7344   5.8543   6.1989   6.3618   6.3628   6.9558   7.0784
     7.1288   7.3107   7.3879   7.5326   7.6074   7.6170   7.6766   8.3339
     8.4837   8.5001   8.5773   8.7837   8.8814   8.9625   9.0339   9.0766
     9.2103   9.2174   9.4173   9.4202   9.9592   9.9718  10.0283  10.0842
    12.1685  12.2779  12.2912  12.3733  14.0604  14.1302  14.1892  14.1997
    14.8781  14.9880  15.0474  15.0774  16.1050  16.1117  16.1167  16.1626
    16.2708  16.5208  16.9535  17.5282  17.5557

     occupation numbers 
     1.0000   1.0000   1.0000   1.0000   1.0000   1.0000   1.0000   1.0000
     1.0000   1.0000   1.0000   1.0000   1.0000   1.0000   1.0000   1.0000
     1.0000   1.0000   1.0000   1.0000   1.0000   1.0000   1.0000   1.0000
     1.0000   1.0000   1.0000   1.0000   1.0000   1.0000   1.0000   1.0000
     1.0000   1.0000   1.0000   1.0000   1.0000   1.0000   1.0000   1.0000
     1.0000   1.0000   1.0000   1.0000   1.0000   1.0000   1.0000   1.0000
     1.0000   1.0000   1.0000   1.0000   1.0000   1.0000   1.0000   1.0000
     1.0000   1.0000   1.0000   1.0000   1.0000   1.0000   1.0000   1.0000
     1.0000   1.0000   1.0000   1.0000   1.0000   1.0000   1.0000   1.0000
     1.0000   1.0000   1.0000   1.0000   1.0000   1.0000   1.0000   1.0000
     1.0000   1.0000   1.0000   1.0000   0.0000   0.0000   0.0000   0.0000
     0.0000   0.0000   0.0000   0.0000   0.0000   0.0000   0.0000   0.0000
     0.0000   0.0000   0.0000   0.0000   0.0000

          k = 0.0000 0.8000 0.2828 ( 10071 PWs)   bands (ev):

   -48.9480 -48.9476 -48.9458 -48.9453 -23.2524 -23.2505 -23.2458 -23.2445
   -23.2440 -23.2326 -23.2168 -23.2081 -23.1894 -23.1878 -23.1832 -23.1822
   -22.0786 -22.0703 -22.0543 -22.0501  -6.7647  -6.7090  -6.1416  -6.0126
    -5.9881  -5.9731  -5.8539  -5.7522  -5.6723  -5.5960  -5.5485  -5.5146
    -4.2550  -4.1761  -4.1342  -4.1109  -4.0685  -4.0447  -4.0051  -3.9324
    -3.9303  -3.8805  -3.8136  -3.7722   5.4267   5.4326   5.6163   5.6202
     5.8773   6.0416   6.1704   6.3516   6.5401   6.5810   6.7441   6.8156
     6.9274   7.1435   7.3942   7.4396   7.4543   7.5640   7.7266   7.7979
     8.0916   8.1067   8.6383   8.7636   8.9976   9.0588   9.1760   9.2241
     9.2412   9.3096   9.3260   9.4116   9.7020   9.7596  10.0374  10.0525
    12.2710  12.3284  12.8230  12.8580  13.5206  13.5529  14.3988  14.4015
    14.7099  14.7140  14.9370  15.0148  16.1145  16.1156  16.5819  16.6655
    16.7905  17.1179  17.1610  17.1668  17.4394

     occupation numbers 
     1.0000   1.0000   1.0000   1.0000   1.0000   1.0000   1.0000   1.0000
     1.0000   1.0000   1.0000   1.0000   1.0000   1.0000   1.0000   1.0000
     1.0000   1.0000   1.0000   1.0000   1.0000   1.0000   1.0000   1.0000
     1.0000   1.0000   1.0000   1.0000   1.0000   1.0000   1.0000   1.0000
     1.0000   1.0000   1.0000   1.0000   1.0000   1.0000   1.0000   1.0000
     1.0000   1.0000   1.0000   1.0000   1.0000   1.0000   1.0000   1.0000
     1.0000   1.0000   1.0000   1.0000   1.0000   1.0000   1.0000   1.0000
     1.0000   1.0000   1.0000   1.0000   1.0000   1.0000   1.0000   1.0000
     1.0000   1.0000   1.0000   1.0000   1.0000   1.0000   1.0000   1.0000
     1.0000   1.0000   1.0000   1.0000   1.0000   1.0000   1.0000   1.0000
     1.0000   1.0000   1.0000   1.0000   0.9683   0.8625   0.0000   0.0000
     0.0000   0.0000   0.0000   0.0000   0.0000   0.0000   0.0000   0.0000
     0.0000   0.0000   0.0000   0.0000   0.0000

          k = 0.0000 0.8000 0.4243 ( 10071 PWs)   bands (ev):

   -48.9480 -48.9476 -48.9458 -48.9453 -23.2524 -23.2505 -23.2458 -23.2445
   -23.2440 -23.2326 -23.2168 -23.2081 -23.1894 -23.1878 -23.1832 -23.1822
   -22.0786 -22.0703 -22.0543 -22.0501  -6.7647  -6.7090  -6.1416  -6.0126
    -5.9881  -5.9731  -5.8539  -5.7522  -5.6723  -5.5960  -5.5485  -5.5146
    -4.2550  -4.1761  -4.1342  -4.1109  -4.0685  -4.0447  -4.0051  -3.9324
    -3.9303  -3.8805  -3.8136  -3.7722   5.4267   5.4326   5.6163   5.6202
     5.8773   6.0416   6.1704   6.3516   6.5401   6.5810   6.7440   6.8156
     6.9274   7.1435   7.3942   7.4396   7.4543   7.5640   7.7266   7.7979
     8.0916   8.1067   8.6383   8.7636   8.9976   9.0588   9.1760   9.2241
     9.2412   9.3096   9.3260   9.4116   9.7020   9.7596  10.0374  10.0525
    12.2710  12.3284  12.8230  12.8580  13.5206  13.5529  14.3988  14.4015
    14.7099  14.7140  14.9370  15.0148  16.1145  16.1156  16.5819  16.6655
    16.7905  17.1179  17.1610  17.1668  17.4394

     occupation numbers 
     1.0000   1.0000   1.0000   1.0000   1.0000   1.0000   1.0000   1.0000
     1.0000   1.0000   1.0000   1.0000   1.0000   1.0000   1.0000   1.0000
     1.0000   1.0000   1.0000   1.0000   1.0000   1.0000   1.0000   1.0000
     1.0000   1.0000   1.0000   1.0000   1.0000   1.0000   1.0000   1.0000
     1.0000   1.0000   1.0000   1.0000   1.0000   1.0000   1.0000   1.0000
     1.0000   1.0000   1.0000   1.0000   1.0000   1.0000   1.0000   1.0000
     1.0000   1.0000   1.0000   1.0000   1.0000   1.0000   1.0000   1.0000
     1.0000   1.0000   1.0000   1.0000   1.0000   1.0000   1.0000   1.0000
     1.0000   1.0000   1.0000   1.0000   1.0000   1.0000   1.0000   1.0000
     1.0000   1.0000   1.0000   1.0000   1.0000   1.0000   1.0000   1.0000
     1.0000   1.0000   1.0000   1.0000   0.9683   0.8625   0.0000   0.0000
     0.0000   0.0000   0.0000   0.0000   0.0000   0.0000   0.0000   0.0000
     0.0000   0.0000   0.0000   0.0000   0.0000

          k = 0.0000 0.8000 0.5657 ( 10060 PWs)   bands (ev):

   -48.9484 -48.9472 -48.9461 -48.9448 -23.2662 -23.2535 -23.2523 -23.2489
   -23.2468 -23.2435 -23.1947 -23.1905 -23.1891 -23.1854 -23.1842 -23.1813
   -22.0854 -22.0638 -22.0577 -22.0466  -6.8294  -6.7099  -6.3377  -6.0489
    -6.0308  -5.9645  -5.7617  -5.7117  -5.6558  -5.5067  -5.4406  -5.4265
    -4.2756  -4.2652  -4.1125  -4.0995  -4.0898  -4.0868  -4.0355  -3.9722
    -3.9719  -3.8160  -3.7368  -3.6911   5.4221   5.4375   5.4457   5.5284
     5.5888   5.7344   5.8543   6.1989   6.3618   6.3628   6.9558   7.0784
     7.1288   7.3107   7.3879   7.5326   7.6074   7.6170   7.6765   8.3339
     8.4837   8.5001   8.5773   8.7837   8.8814   8.9625   9.0339   9.0766
     9.2103   9.2174   9.4173   9.4202   9.9592   9.9718  10.0283  10.0842
    12.1685  12.2779  12.2912  12.3733  14.0604  14.1302  14.1892  14.1997
    14.8781  14.9880  15.0474  15.0774  16.1050  16.1117  16.1167  16.1626
    16.2708  16.5208  16.9535  17.5282  17.5557

     occupation numbers 
     1.0000   1.0000   1.0000   1.0000   1.0000   1.0000   1.0000   1.0000
     1.0000   1.0000   1.0000   1.0000   1.0000   1.0000   1.0000   1.0000
     1.0000   1.0000   1.0000   1.0000   1.0000   1.0000   1.0000   1.0000
     1.0000   1.0000   1.0000   1.0000   1.0000   1.0000   1.0000   1.0000
     1.0000   1.0000   1.0000   1.0000   1.0000   1.0000   1.0000   1.0000
     1.0000   1.0000   1.0000   1.0000   1.0000   1.0000   1.0000   1.0000
     1.0000   1.0000   1.0000   1.0000   1.0000   1.0000   1.0000   1.0000
     1.0000   1.0000   1.0000   1.0000   1.0000   1.0000   1.0000   1.0000
     1.0000   1.0000   1.0000   1.0000   1.0000   1.0000   1.0000   1.0000
     1.0000   1.0000   1.0000   1.0000   1.0000   1.0000   1.0000   1.0000
     1.0000   1.0000   1.0000   1.0000   0.0000   0.0000   0.0000   0.0000
     0.0000   0.0000   0.0000   0.0000   0.0000   0.0000   0.0000   0.0000
     0.0000   0.0000   0.0000   0.0000   0.0000

          k = 0.2000 0.0000 0.0000 ( 10076 PWs)   bands (ev):

   -48.9484 -48.9470 -48.9465 -48.9448 -23.2744 -23.2598 -23.2523 -23.2492
[...]
    17.1388  17.4674  17.6143  17.7038  17.9032

     occupation numbers 
     1.0000   1.0000   1.0000   1.0000   1.0000   1.0000   1.0000   1.0000
     1.0000   1.0000   1.0000   1.0000   1.0000   1.0000   1.0000   1.0000
     1.0000   1.0000   1.0000   1.0000   1.0000   1.0000   1.0000   1.0000
     1.0000   1.0000   1.0000   1.0000   1.0000   1.0000   1.0000   1.0000
     1.0000   1.0000   1.0000   1.0000   1.0000   1.0000   1.0000   1.0000
     1.0000   1.0000   1.0000   1.0000   1.0000   1.0000   1.0000   1.0000
     1.0000   1.0000   1.0000   1.0000   1.0000   1.0000   1.0000   1.0000
     1.0000   1.0000   1.0000   1.0000   1.0000   1.0000   1.0000   1.0000
     1.0000   1.0000   1.0000   1.0000   1.0000   1.0000   1.0000   1.0000
     1.0000   1.0000   1.0000   1.0000   1.0000   1.0000   1.0000   1.0000
     1.0000   1.0000   0.9267   0.9065   0.0690   0.0000   0.0000   0.0000
     0.0000   0.0000   0.0000   0.0000   0.0000   0.0000   0.0000   0.0000
     0.0000   0.0000   0.0000   0.0000   0.0000

          k = 0.8000 0.6000 0.2828 ( 10093 PWs)   bands (ev):

   -48.9474 -48.9468 -48.9467 -48.9461 -23.2550 -23.2518 -23.2393 -23.2371
   -23.2339 -23.2319 -23.2127 -23.2101 -23.2034 -23.2021 -23.1839 -23.1827
   -22.0669 -22.0629 -22.0595 -22.0567  -6.6465  -6.5342  -6.5143  -6.3066
    -5.9195  -5.8500  -5.7986  -5.7871  -5.7586  -5.6968  -5.6298  -5.6110
    -4.1827  -4.1677  -4.0965  -4.0943  -4.0229  -3.9667  -3.8913  -3.8606
    -3.7755  -3.7583  -3.7513  -3.7399   5.5057   5.5081   6.0375   6.0874
     6.1232   6.1464   6.2965   6.3338   6.5187   6.6667   6.7575   6.8443
     6.9326   7.0047   7.0595   7.1939   7.2236   7.3150   7.4292   7.4945
     7.6468   7.8417   8.3086   8.4018   8.8965   8.9695   9.0034   9.0823
     9.1781   9.2334   9.2688   9.3219   9.4455   9.4869   9.7011   9.8169
    12.9121  13.3734  13.5389  13.5742  13.6871  13.7418  13.9338  14.1106
    14.2968  14.3274  14.3803  14.5763  16.5989  16.8285  17.3725  17.4170
    17.4808  17.7397  17.7534  17.7919  17.8613

     occupation numbers 
     1.0000   1.0000   1.0000   1.0000   1.0000   1.0000   1.0000   1.0000
     1.0000   1.0000   1.0000   1.0000   1.0000   1.0000   1.0000   1.0000
     1.0000   1.0000   1.0000   1.0000   1.0000   1.0000   1.0000   1.0000
     1.0000   1.0000   1.0000   1.0000   1.0000   1.0000   1.0000   1.0000
     1.0000   1.0000   1.0000   1.0000   1.0000   1.0000   1.0000   1.0000
     1.0000   1.0000   1.0000   1.0000   1.0000   1.0000   1.0000   1.0000
     1.0000   1.0000   1.0000   1.0000   1.0000   1.0000   1.0000   1.0000
     1.0000   1.0000   1.0000   1.0000   1.0000   1.0000   1.0000   1.0000
     1.0000   1.0000   1.0000   1.0000   1.0000   1.0000   1.0000   1.0000
     1.0000   1.0000   1.0000   1.0000   1.0000   1.0000   1.0000   1.0000
     1.0000   1.0000   0.9259   0.6891   0.0087   0.0006   0.0000   0.0000
     0.0000   0.0000   0.0000   0.0000   0.0000   0.0000   0.0000   0.0000
     0.0000   0.0000   0.0000   0.0000   0.0000

          k = 0.8000 0.6000 0.4243 ( 10093 PWs)   bands (ev):

   -48.9474 -48.9468 -48.9467 -48.9461 -23.2550 -23.2518 -23.2393 -23.2371
   -23.2338 -23.2319 -23.2127 -23.2101 -23.2034 -23.2021 -23.1839 -23.1827
   -22.0669 -22.0629 -22.0595 -22.0567  -6.6465  -6.5342  -6.5143  -6.3066
    -5.9195  -5.8500  -5.7986  -5.7871  -5.7586  -5.6968  -5.6298  -5.6110
    -4.1827  -4.1677  -4.0965  -4.0943  -4.0229  -3.9667  -3.8913  -3.8606
    -3.7755  -3.7583  -3.7513  -3.7399   5.5057   5.5081   6.0375   6.0874
     6.1232   6.1464   6.2965   6.3338   6.5187   6.6667   6.7575   6.8443
     6.9326   7.0047   7.0595   7.1939   7.2236   7.3150   7.4292   7.4945
     7.6468   7.8417   8.3086   8.4018   8.8965   8.9695   9.0034   9.0823
     9.1781   9.2334   9.2688   9.3219   9.4455   9.4869   9.7011   9.8169
    12.9121  13.3734  13.5389  13.5742  13.6871  13.7418  13.9339  14.1106
    14.2968  14.3274  14.3803  14.5763  16.5989  16.8285  17.3725  17.4170
    17.4808  17.7398  17.7534  17.7919  17.8613

     occupation numbers 
     1.0000   1.0000   1.0000   1.0000   1.0000   1.0000   1.0000   1.0000
     1.0000   1.0000   1.0000   1.0000   1.0000   1.0000   1.0000   1.0000
     1.0000   1.0000   1.0000   1.0000   1.0000   1.0000   1.0000   1.0000
     1.0000   1.0000   1.0000   1.0000   1.0000   1.0000   1.0000   1.0000
     1.0000   1.0000   1.0000   1.0000   1.0000   1.0000   1.0000   1.0000
     1.0000   1.0000   1.0000   1.0000   1.0000   1.0000   1.0000   1.0000
     1.0000   1.0000   1.0000   1.0000   1.0000   1.0000   1.0000   1.0000
     1.0000   1.0000   1.0000   1.0000   1.0000   1.0000   1.0000   1.0000
     1.0000   1.0000   1.0000   1.0000   1.0000   1.0000   1.0000   1.0000
     1.0000   1.0000   1.0000   1.0000   1.0000   1.0000   1.0000   1.0000
     1.0000   1.0000   0.9259   0.6891   0.0087   0.0006   0.0000   0.0000
     0.0000   0.0000   0.0000   0.0000   0.0000   0.0000   0.0000   0.0000
     0.0000   0.0000   0.0000   0.0000   0.0000

          k = 0.8000 0.6000 0.5657 ( 10093 PWs)   bands (ev):

   -48.9476 -48.9471 -48.9465 -48.9458 -23.2601 -23.2566 -23.2553 -23.2491
   -23.2381 -23.2301 -23.2044 -23.2014 -23.1916 -23.1899 -23.1848 -23.1818
   -22.0702 -22.0618 -22.0597 -22.0545  -6.7682  -6.6803  -6.4853  -6.1375
    -5.9846  -5.8814  -5.8049  -5.7678  -5.6842  -5.6429  -5.6091  -5.5841
    -4.1796  -4.1201  -4.1016  -4.0999  -4.0521  -3.9324  -3.9067  -3.8325
    -3.8157  -3.7626  -3.7497  -3.7083   5.4347   5.5087   5.5177   5.6329
     5.8757   5.9742   6.1652   6.2633   6.4462   6.7368   6.8138   7.0590
     7.1301   7.1512   7.1862   7.2885   7.3937   7.4727   7.4772   7.7263
     7.7949   8.3449   8.4771   8.6521   8.8004   8.8188   8.9777   9.0231
     9.0576   9.0792   9.2232   9.3350   9.3847   9.3941   9.8074  10.0285
    12.3336  12.9675  13.5386  13.5440  13.6435  14.1156  14.1492  14.3017
    14.3900  14.4319  14.5134  14.8782  16.1111  16.6265  16.9119  17.0434
    17.1388  17.4674  17.6143  17.7038  17.9032

     occupation numbers 
     1.0000   1.0000   1.0000   1.0000   1.0000   1.0000   1.0000   1.0000
     1.0000   1.0000   1.0000   1.0000   1.0000   1.0000   1.0000   1.0000
     1.0000   1.0000   1.0000   1.0000   1.0000   1.0000   1.0000   1.0000
     1.0000   1.0000   1.0000   1.0000   1.0000   1.0000   1.0000   1.0000
     1.0000   1.0000   1.0000   1.0000   1.0000   1.0000   1.0000   1.0000
     1.0000   1.0000   1.0000   1.0000   1.0000   1.0000   1.0000   1.0000
     1.0000   1.0000   1.0000   1.0000   1.0000   1.0000   1.0000   1.0000
     1.0000   1.0000   1.0000   1.0000   1.0000   1.0000   1.0000   1.0000
     1.0000   1.0000   1.0000   1.0000   1.0000   1.0000   1.0000   1.0000
     1.0000   1.0000   1.0000   1.0000   1.0000   1.0000   1.0000   1.0000
     1.0000   1.0000   0.9267   0.9065   0.0690   0.0000   0.0000   0.0000
     0.0000   0.0000   0.0000   0.0000   0.0000   0.0000   0.0000   0.0000
     0.0000   0.0000   0.0000   0.0000   0.0000

          k = 0.8000 0.8000 0.0000 ( 10069 PWs)   bands (ev):

   -48.9483 -48.9470 -48.9466 -48.9448 -23.2723 -23.2620 -23.2604 -23.2546
   -23.2292 -23.2251 -23.2118 -23.2046 -23.1850 -23.1808 -23.1781 -23.1746
   -22.0827 -22.0608 -22.0594 -22.0479  -6.7746  -6.7561  -6.5468  -6.0620
    -5.9219  -5.9068  -5.8270  -5.6745  -5.6508  -5.5118  -5.5106  -5.5099
    -4.2367  -4.1514  -4.1375  -4.0640  -4.0524  -4.0494  -4.0338  -3.9276
    -3.9107  -3.8212  -3.7001  -3.6884   5.1823   5.2512   5.2786   5.3917
     5.8516   5.9602   6.2182   6.3717   6.3917   6.4730   6.4773   6.9879
     7.0553   7.3268   7.3844   7.4853   7.5578   7.7102   7.7146   8.2988
     8.5124   8.5214   8.5222   8.7367   8.7426   8.7930   8.8153   8.8763
     9.0412   9.3588   9.5808   9.5869   9.7942   9.8006   9.8277  10.1680
    11.7378  12.7152  12.7179  12.8252  13.5707  14.2667  14.3278  14.4244
    14.7224  14.8525  14.9418  15.1281  15.6621  16.2500  16.2523  16.3544
    16.4946  16.5129  17.0990  17.3108  17.8809

     occupation numbers 
     1.0000   1.0000   1.0000   1.0000   1.0000   1.0000   1.0000   1.0000
     1.0000   1.0000   1.0000   1.0000   1.0000   1.0000   1.0000   1.0000
     1.0000   1.0000   1.0000   1.0000   1.0000   1.0000   1.0000   1.0000
     1.0000   1.0000   1.0000   1.0000   1.0000   1.0000   1.0000   1.0000
     1.0000   1.0000   1.0000   1.0000   1.0000   1.0000   1.0000   1.0000
     1.0000   1.0000   1.0000   1.0000   1.0000   1.0000   1.0000   1.0000
     1.0000   1.0000   1.0000   1.0000   1.0000   1.0000   1.0000   1.0000
     1.0000   1.0000   1.0000   1.0000   1.0000   1.0000   1.0000   1.0000
     1.0000   1.0000   1.0000   1.0000   1.0000   1.0000   1.0000   1.0000
     1.0000   1.0000   1.0000   1.0000   1.0000   1.0000   1.0000   1.0000
     1.0000   1.0000   1.0000   1.0000   0.7238   0.0000   0.0000   0.0000
     0.0000   0.0000   0.0000   0.0000   0.0000   0.0000   0.0000   0.0000
     0.0000   0.0000   0.0000   0.0000   0.0000

          k = 0.8000 0.8000 0.1414 ( 10067 PWs)   bands (ev):

   -48.9482 -48.9470 -48.9465 -48.9450 -23.2644 -23.2611 -23.2553 -23.2528
   -23.2289 -23.2256 -23.2112 -23.2052 -23.1933 -23.1884 -23.1777 -23.1749
   -22.0806 -22.0629 -22.0583 -22.0490  -6.7436  -6.7376  -6.4774  -6.0420
    -5.9377  -5.9181  -5.7925  -5.7919  -5.6438  -5.5739  -5.5210  -5.5023
    -4.2705  -4.1260  -4.1023  -4.0860  -4.0682  -4.0182  -4.0062  -3.9390
    -3.9017  -3.8199  -3.7370  -3.7142   5.2395   5.2524   5.5249   5.5869
     5.8956   6.0051   6.2231   6.3473   6.4507   6.4648   6.5942   6.9625
     7.0778   7.0934   7.2347   7.4854   7.4874   7.6550   7.6901   8.1423
     8.3154   8.4029   8.4231   8.7656   8.8039   8.8400   8.9510   9.0648
     9.0810   9.3266   9.3864   9.4461   9.7376   9.7908   9.8294  10.0921
    12.0456  12.7309  12.8113  12.8244  13.6677  14.0692  14.2190  14.3809
    14.7305  14.7367  14.9173  15.0684  15.8024  16.2362  16.4222  16.4971
    16.6995  16.9028  17.1634  17.5058  17.7398

     occupation numbers 
     1.0000   1.0000   1.0000   1.0000   1.0000   1.0000   1.0000   1.0000
     1.0000   1.0000   1.0000   1.0000   1.0000   1.0000   1.0000   1.0000
     1.0000   1.0000   1.0000   1.0000   1.0000   1.0000   1.0000   1.0000
     1.0000   1.0000   1.0000   1.0000   1.0000   1.0000   1.0000   1.0000
     1.0000   1.0000   1.0000   1.0000   1.0000   1.0000   1.0000   1.0000
     1.0000   1.0000   1.0000   1.0000   1.0000   1.0000   1.0000   1.0000
     1.0000   1.0000   1.0000   1.0000   1.0000   1.0000   1.0000   1.0000
     1.0000   1.0000   1.0000   1.0000   1.0000   1.0000   1.0000   1.0000
     1.0000   1.0000   1.0000   1.0000   1.0000   1.0000   1.0000   1.0000
     1.0000   1.0000   1.0000   1.0000   1.0000   1.0000   1.0000   1.0000
     1.0000   1.0000   1.0000   1.0000   0.0222   0.0000   0.0000   0.0000
     0.0000   0.0000   0.0000   0.0000   0.0000   0.0000   0.0000   0.0000
     0.0000   0.0000   0.0000   0.0000   0.0000

          k = 0.8000 0.8000 0.2828 ( 10073 PWs)   bands (ev):

   -48.9477 -48.9473 -48.9460 -48.9456 -23.2596 -23.2572 -23.2426 -23.2332
   -23.2278 -23.2267 -23.2164 -23.2093 -23.2082 -23.2060 -23.1768 -23.1758
   -22.0750 -22.0682 -22.0554 -22.0519  -6.7008  -6.6963  -6.2927  -6.0647
    -5.9416  -5.9376  -5.9275  -5.7821  -5.6820  -5.5876  -5.5712  -5.5487
    -4.2661  -4.1973  -4.0989  -4.0801  -4.0121  -3.9669  -3.9473  -3.9183
    -3.8595  -3.8513  -3.8300  -3.7819   5.2555   5.2569   5.9987   6.0665
     6.1437   6.1587   6.2328   6.3903   6.4704   6.6983   6.7309   6.8154
     6.8671   6.8919   7.0056   7.1912   7.4680   7.5785   7.5936   7.6267
     7.8847   8.1787   8.4495   8.6506   8.8780   8.9460   9.1045   9.2368
     9.2611   9.2999   9.3727   9.4445   9.5501   9.7006   9.8414   9.9108
    12.6493  12.7724  12.8476  13.1792  13.5105  13.7194  13.9528  14.3580
    14.5443  14.7902  14.8013  14.8705  16.0571  16.1835  16.8334  16.9040
    17.3039  17.3598  17.4465  17.4727  17.7461

     occupation numbers 
     1.0000   1.0000   1.0000   1.0000   1.0000   1.0000   1.0000   1.0000
     1.0000   1.0000   1.0000   1.0000   1.0000   1.0000   1.0000   1.0000
     1.0000   1.0000   1.0000   1.0000   1.0000   1.0000   1.0000   1.0000
     1.0000   1.0000   1.0000   1.0000   1.0000   1.0000   1.0000   1.0000
     1.0000   1.0000   1.0000   1.0000   1.0000   1.0000   1.0000   1.0000
     1.0000   1.0000   1.0000   1.0000   1.0000   1.0000   1.0000   1.0000
     1.0000   1.0000   1.0000   1.0000   1.0000   1.0000   1.0000   1.0000
     1.0000   1.0000   1.0000   1.0000   1.0000   1.0000   1.0000   1.0000
     1.0000   1.0000   1.0000   1.0000   1.0000   1.0000   1.0000   1.0000
     1.0000   1.0000   1.0000   1.0000   1.0000   1.0000   1.0000   1.0000
     1.0000   1.0000   1.0000   1.0000   0.9805   0.0018   0.0000   0.0000
     0.0000   0.0000   0.0000   0.0000   0.0000   0.0000   0.0000   0.0000
     0.0000   0.0000   0.0000   0.0000   0.0000

          k = 0.8000 0.8000 0.4243 ( 10073 PWs)   bands (ev):

   -48.9477 -48.9473 -48.9460 -48.9456 -23.2596 -23.2572 -23.2426 -23.2332
   -23.2278 -23.2267 -23.2164 -23.2093 -23.2083 -23.2060 -23.1768 -23.1758
   -22.0750 -22.0682 -22.0554 -22.0519  -6.7008  -6.6963  -6.2927  -6.0647
    -5.9416  -5.9376  -5.9275  -5.7821  -5.6820  -5.5876  -5.5712  -5.5487
    -4.2661  -4.1973  -4.0989  -4.0801  -4.0121  -3.9669  -3.9473  -3.9183
    -3.8595  -3.8513  -3.8300  -3.7819   5.2555   5.2569   5.9987   6.0665
     6.1437   6.1587   6.2328   6.3903   6.4704   6.6983   6.7309   6.8154
     6.8671   6.8919   7.0056   7.1912   7.4680   7.5785   7.5936   7.6267
     7.8847   8.1787   8.4495   8.6506   8.8780   8.9460   9.1045   9.2368
     9.2611   9.2999   9.3727   9.4445   9.5501   9.7006   9.8414   9.9108
    12.6493  12.7724  12.8476  13.1792  13.5105  13.7194  13.9528  14.3580
    14.5443  14.7902  14.8013  14.8705  16.0571  16.1835  16.8334  16.9040
    17.3039  17.3598  17.4465  17.4727  17.7461

     occupation numbers 
     1.0000   1.0000   1.0000   1.0000   1.0000   1.0000   1.0000   1.0000
     1.0000   1.0000   1.0000   1.0000   1.0000   1.0000   1.0000   1.0000
     1.0000   1.0000   1.0000   1.0000   1.0000   1.0000   1.0000   1.0000
     1.0000   1.0000   1.0000   1.0000   1.0000   1.0000   1.0000   1.0000
     1.0000   1.0000   1.0000   1.0000   1.0000   1.0000   1.0000   1.0000
     1.0000   1.0000   1.0000   1.0000   1.0000   1.0000   1.0000   1.0000
     1.0000   1.0000   1.0000   1.0000   1.0000   1.0000   1.0000   1.0000
     1.0000   1.0000   1.0000   1.0000   1.0000   1.0000   1.0000   1.0000
     1.0000   1.0000   1.0000   1.0000   1.0000   1.0000   1.0000   1.0000
     1.0000   1.0000   1.0000   1.0000   1.0000   1.0000   1.0000   1.0000
     1.0000   1.0000   1.0000   1.0000   0.9805   0.0018   0.0000   0.0000
     0.0000   0.0000   0.0000   0.0000   0.0000   0.0000   0.0000   0.0000
     0.0000   0.0000   0.0000   0.0000   0.0000

          k = 0.8000 0.8000 0.5657 ( 10067 PWs)   bands (ev):

   -48.9482 -48.9470 -48.9465 -48.9450 -23.2644 -23.2611 -23.2553 -23.2528
   -23.2289 -23.2256 -23.2112 -23.2052 -23.1933 -23.1884 -23.1777 -23.1749
   -22.0806 -22.0629 -22.0583 -22.0490  -6.7436  -6.7376  -6.4774  -6.0420
    -5.9377  -5.9181  -5.7925  -5.7919  -5.6438  -5.5739  -5.5210  -5.5023
    -4.2705  -4.1260  -4.1023  -4.0860  -4.0682  -4.0182  -4.0062  -3.9390
    -3.9017  -3.8199  -3.7370  -3.7142   5.2395   5.2524   5.5249   5.5869
     5.8956   6.0051   6.2231   6.3473   6.4507   6.4648   6.5942   6.9625
     7.0778   7.0934   7.2347   7.4854   7.4874   7.6550   7.6901   8.1423
     8.3154   8.4029   8.4231   8.7656   8.8039   8.8400   8.9510   9.0648
     9.0810   9.3266   9.3864   9.4461   9.7376   9.7908   9.8294  10.0921
    12.0456  12.7309  12.8113  12.8244  13.6677  14.0692  14.2190  14.3809
    14.7305  14.7367  14.9173  15.0684  15.8024  16.2362  16.4222  16.4971
    16.6995  16.9028  17.1634  17.5058  17.7398

     occupation numbers 
     1.0000   1.0000   1.0000   1.0000   1.0000   1.0000   1.0000   1.0000
     1.0000   1.0000   1.0000   1.0000   1.0000   1.0000   1.0000   1.0000
     1.0000   1.0000   1.0000   1.0000   1.0000   1.0000   1.0000   1.0000
     1.0000   1.0000   1.0000   1.0000   1.0000   1.0000   1.0000   1.0000
     1.0000   1.0000   1.0000   1.0000   1.0000   1.0000   1.0000   1.0000
     1.0000   1.0000   1.0000   1.0000   1.0000   1.0000   1.0000   1.0000
     1.0000   1.0000   1.0000   1.0000   1.0000   1.0000   1.0000   1.0000
     1.0000   1.0000   1.0000   1.0000   1.0000   1.0000   1.0000   1.0000
     1.0000   1.0000   1.0000   1.0000   1.0000   1.0000   1.0000   1.0000
     1.0000   1.0000   1.0000   1.0000   1.0000   1.0000   1.0000   1.0000
     1.0000   1.0000   1.0000   1.0000   0.0222   0.0000   0.0000   0.0000
     0.0000   0.0000   0.0000   0.0000   0.0000   0.0000   0.0000   0.0000
     0.0000   0.0000   0.0000   0.0000   0.0000

     the Fermi energy is    13.5904 ev
     (compare with:    13.5904 eV, computed in scf)
     The nscf band energy is:      -51.89468774 Ry
     Calculation interrupted for call of DMFT code

     Writing all to output data dir ./out/smo.save/ :
     XML data file, pseudopotentials, collected wavefunctions

     init_run     :      1.40s CPU      1.76s WALL (       1 calls)
     electrons    :     33.81s CPU     43.15s WALL (       1 calls)

     Called by init_run:
     wfcinit      :      0.00s CPU      0.14s WALL (       1 calls)
     wfcinit:atom :      0.02s CPU      0.04s WALL (       1 calls)
     wfcinit:wfcr :      1.06s CPU      1.09s WALL (       1 calls)
     potinit      :      0.17s CPU      0.31s WALL (       1 calls)
     hinit0       :      1.13s CPU      1.17s WALL (       1 calls)

     Called by electrons:
     c_bands      :     33.73s CPU     34.77s WALL (       1 calls)
     v_of_rho     :      0.09s CPU      0.10s WALL (       1 calls)
     v_h          :      0.03s CPU      0.04s WALL (       1 calls)
     v_xc         :      0.05s CPU      0.06s WALL (       1 calls)
     newd         :      0.03s CPU      0.04s WALL (       1 calls)
     PAW_pot      :      0.02s CPU      0.03s WALL (       1 calls)

     Called by c_bands:
     init_us_2    :      0.04s CPU      0.08s WALL (       1 calls)
     cegterg      :     32.32s CPU     32.64s WALL (       6 calls)

     Called by sum_band:

     Called by *egterg:
     cdiaghg      :      4.60s CPU      4.62s WALL (     121 calls)
     cegterg:over :      4.85s CPU      4.87s WALL (     120 calls)
     cegterg:upda :      4.38s CPU      4.46s WALL (     120 calls)
     cegterg:last :      1.48s CPU      1.49s WALL (       7 calls)
     h_psi        :     14.91s CPU     15.04s WALL (     127 calls)
     s_psi        :      2.41s CPU      2.42s WALL (     127 calls)
     g_psi        :      0.06s CPU      0.06s WALL (     120 calls)

     Called by h_psi:
     h_psi:calbec :      2.31s CPU      2.32s WALL (     127 calls)
     vloc_psi     :     10.02s CPU     10.07s WALL (     127 calls)
                                        0.00s GPU  (     127 calls)
     add_vuspsi   :      2.50s CPU      2.51s WALL (     127 calls)

     General routines
     calbec       :      2.31s CPU      2.32s WALL (     127 calls)
     fft          :      0.07s CPU      0.07s WALL (       6 calls)
     ffts         :      0.00s CPU      0.00s WALL (       1 calls)
     fftw         :      9.12s CPU      9.16s WALL (    4572 calls)
     interpolate  :      0.02s CPU      0.03s WALL (       1 calls)
     davcio       :      0.00s CPU      4.44s WALL (       2 calls)

     Parallel routines

     PAW routines
     PAW_pot      :      0.02s CPU      0.03s WALL (       1 calls)

     PWSCF        :     35.72s CPU     46.41s WALL


   This run was terminated on:  20:39:15  29Nov2025            

=------------------------------------------------------------------------------=
   JOB DONE.
=------------------------------------------------------------------------------=
