
             +---------------------------------------------------+
             |                                                   |
             |                   WANNIER90                       |
             |                                                   |
             +---------------------------------------------------+
             |                                                   |
             |        Welcome to the Maximally-Localized         |
             |        Generalized Wannier Functions code         |
             |            http://www.wannier.org                 |
             |                                                   |
             |                                                   |
             |  Wannier90 Developer Group:                       |
             |    Giovanni Pizzi    (Paul Scherrer Institute)    |
             |    Valerio Vitale    (University of Trieste)      |
             |    David Vanderbilt  (Rutgers University)         |
             |    Nicola Marzari    (EPFL)                       |
             |    Ivo Souza         (Universidad del Pais Vasco) |
             |    Arash A. Mostofi  (Imperial College London)    |
             |    Jonathan R. Yates (University of Oxford)       |
             |                                                   |
             |  For the full list of Wannier90 3.x authors,      |
             |  please check the code documentation and the      |
             |  README on the GitHub page of the code            |
             |                                                   |
             |                                                   |
             |  Please cite                                      |
             |                                                   |
             |  [ref] "Wannier90 as a community code:            |
             |        new features and applications",            |
             |        G. Pizzi et al., J. Phys. Cond. Matt. 32,  |
             |        165902 (2020).                             |
             |        http://doi.org/10.1088/1361-648X/ab51ff    |
             |                                                   |
             |  in any publications arising from the use of      |
             |  this code. For the method please cite            |
             |                                                   |
             |  [ref] "Maximally Localized Generalised Wannier   |
             |         Functions for Composite Energy Bands"     |
             |         N. Marzari and D. Vanderbilt              |
             |         Phys. Rev. B 56 12847 (1997)              |
             |                                                   |
             |  [ref] "Maximally Localized Wannier Functions     |
             |         for Entangled Energy Bands"               |
             |         I. Souza, N. Marzari and D. Vanderbilt    |
             |         Phys. Rev. B 65 035109 (2001)             |
             |                                                   |
             |                                                   |
             | Copyright (c) 1996-2020                           |
             |        The Wannier90 Developer Group and          |
             |        individual contributors                    |
             |                                                   |
             |      Release: 3.1.0        5th March    2020      |
             |                                                   |
             | This program is free software; you can            |
             | redistribute it and/or modify it under the terms  |
             | of the GNU General Public License as published by |
             | the Free Software Foundation; either version 2 of |
             | the License, or (at your option) any later version|
             |                                                   |
             | This program is distributed in the hope that it   |
             | will be useful, but WITHOUT ANY WARRANTY; without |
             | even the implied warranty of MERCHANTABILITY or   |
             | FITNESS FOR A PARTICULAR PURPOSE. See the GNU     |
             | General Public License for more details.          |
             |                                                   |
             | You should have received a copy of the GNU General|
             | Public License along with this program; if not,   |
             | write to the Free Software Foundation, Inc.,      |
             | 675 Mass Ave, Cambridge, MA 02139, USA.           |
             |                                                   |
             +---------------------------------------------------+
             |    Execution started on 29Nov2025 at 20:40:46     |
             +---------------------------------------------------+
 
 ******************************************************************************
 * -> Using CODATA 2006 constant values                                       *
 *    (http://physics.nist.gov/cuu/Constants/index.html)                      *
 * -> Using Bohr value from CODATA                                            *
 ******************************************************************************

 Running in parallel on 128 CPUs

                                    ------
                                    SYSTEM
                                    ------

                              Lattice Vectors (Ang)
                    a_1     5.613960   0.000000   0.000000
                    a_2     0.000000   5.613960   0.000000
                    a_3     0.000000   0.000000   7.939340

                   Unit Cell Volume:     250.22058  (Ang^3)

                        Reciprocal-Space Vectors (Ang^-1)
                    b_1     1.119207   0.000000   0.000000
                    b_2     0.000000   1.119207   0.000000
                    b_3     0.000000   0.000000   0.791399
  
 *----------------------------------------------------------------------------*
 |   Site       Fractional Coordinate          Cartesian Coordinate (Ang)     |
 +----------------------------------------------------------------------------+
 | sr   1   0.00000   0.50000   0.25000   |    0.00000   2.80698   1.98483    |
 | sr   2   0.00000   0.50000   0.75000   |    0.00000   2.80698   5.95450    |
 | sr   3   0.50000   0.00000   0.75000   |    2.80698   0.00000   5.95450    |
 | sr   4   0.50000   0.00000   0.25000   |    2.80698   0.00000   1.98483    |
 | mo   1   0.00000   0.00000   0.00000   |    0.00000   0.00000   0.00000    |
 | mo   2   0.00000   0.00000   0.50000   |    0.00000   0.00000   3.96967    |
 | mo   3   0.50000   0.50000   0.50000   |    2.80698   2.80698   3.96967    |
 | mo   4   0.50000   0.50000   0.00000   |    2.80698   2.80698   0.00000    |
 | o    1   0.25000   0.75000   0.01336   |    1.40349   4.21047   0.10606    |
 | o    2   0.25000   0.25000  -0.01336   |    1.40349   1.40349  -0.10606    |
 | o    3   0.75000   0.25000   0.51336   |    4.21047   1.40349   4.07573    |
 | o    4   0.75000   0.75000   0.48664   |    4.21047   4.21047   3.86361    |
 | o    5   0.75000   0.25000  -0.01336   |    4.21047   1.40349  -0.10606    |
 | o    6   0.75000   0.75000   0.01336   |    4.21047   4.21047   0.10606    |
 | o    7   0.25000   0.75000   0.48664   |    1.40349   4.21047   3.86361    |
 | o    8   0.25000   0.25000   0.51336   |    1.40349   1.40349   4.07573    |
 | o    9   0.00000   0.02672   0.25000   |    0.00000   0.14999   1.98483    |
 | o   10   0.00000  -0.02672   0.75000   |    0.00000  -0.14999   5.95450    |
 | o   11   0.50000   0.52672   0.75000   |    2.80698   2.95697   5.95450    |
 | o   12   0.50000   0.47328   0.25000   |    2.80698   2.65699   1.98483    |
 *----------------------------------------------------------------------------*
                                -----------
                                PROJECTIONS
                                -----------
  
 +----------------------------------------------------------------------------+
 |     Frac. Coord.   l mr  r        z-axis               x-axis          Z/a |
 +----------------------------------------------------------------------------+
 |  0.00  0.00  0.00  2  2  1  0.000  0.000  1.000  0.707  0.707  0.000   1.0 |
 |  0.00  0.00  0.00  2  3  1  0.000  0.000  1.000  0.707  0.707  0.000   1.0 |
 |  0.00  0.00  0.00  2  5  1  0.000  0.000  1.000  0.707  0.707  0.000   1.0 |
 |  0.00  0.00  0.50  2  2  1  0.000  0.000  1.000  0.707  0.707  0.000   1.0 |
 |  0.00  0.00  0.50  2  3  1  0.000  0.000  1.000  0.707  0.707  0.000   1.0 |
 |  0.00  0.00  0.50  2  5  1  0.000  0.000  1.000  0.707  0.707  0.000   1.0 |
 |  0.50  0.50  0.50  2  2  1  0.000  0.000  1.000  0.707  0.707  0.000   1.0 |
 |  0.50  0.50  0.50  2  3  1  0.000  0.000  1.000  0.707  0.707  0.000   1.0 |
 |  0.50  0.50  0.50  2  5  1  0.000  0.000  1.000  0.707  0.707  0.000   1.0 |
 |  0.50  0.50  0.00  2  2  1  0.000  0.000  1.000  0.707  0.707  0.000   1.0 |
 |  0.50  0.50  0.00  2  3  1  0.000  0.000  1.000  0.707  0.707  0.000   1.0 |
 |  0.50  0.50  0.00  2  5  1  0.000  0.000  1.000  0.707  0.707  0.000   1.0 |
 |  0.00  0.00  0.00  2  1  1  0.000  0.000  1.000  0.707  0.707  0.000   1.0 |
 |  0.00  0.00  0.00  2  4  1  0.000  0.000  1.000  0.707  0.707  0.000   1.0 |
 |  0.00  0.00  0.50  2  1  1  0.000  0.000  1.000  0.707  0.707  0.000   1.0 |
 |  0.00  0.00  0.50  2  4  1  0.000  0.000  1.000  0.707  0.707  0.000   1.0 |
 |  0.50  0.50  0.50  2  1  1  0.000  0.000  1.000  0.707  0.707  0.000   1.0 |
 |  0.50  0.50  0.50  2  4  1  0.000  0.000  1.000  0.707  0.707  0.000   1.0 |
 |  0.50  0.50  0.00  2  1  1  0.000  0.000  1.000  0.707  0.707  0.000   1.0 |
 |  0.50  0.50  0.00  2  4  1  0.000  0.000  1.000  0.707  0.707  0.000   1.0 |
 |  0.25  0.75  0.01  1  1  1  0.000  0.000  1.000  1.000  0.000  0.000   1.0 |
 |  0.25  0.75  0.01  1  2  1  0.000  0.000  1.000  1.000  0.000  0.000   1.0 |
 |  0.25  0.75  0.01  1  3  1  0.000  0.000  1.000  1.000  0.000  0.000   1.0 |
 |  0.25  0.25 -0.01  1  1  1  0.000  0.000  1.000  1.000  0.000  0.000   1.0 |
 |  0.25  0.25 -0.01  1  2  1  0.000  0.000  1.000  1.000  0.000  0.000   1.0 |
 |  0.25  0.25 -0.01  1  3  1  0.000  0.000  1.000  1.000  0.000  0.000   1.0 |
 |  0.75  0.25  0.51  1  1  1  0.000  0.000  1.000  1.000  0.000  0.000   1.0 |
 |  0.75  0.25  0.51  1  2  1  0.000  0.000  1.000  1.000  0.000  0.000   1.0 |
 |  0.75  0.25  0.51  1  3  1  0.000  0.000  1.000  1.000  0.000  0.000   1.0 |
 |  0.75  0.75  0.49  1  1  1  0.000  0.000  1.000  1.000  0.000  0.000   1.0 |
 |  0.75  0.75  0.49  1  2  1  0.000  0.000  1.000  1.000  0.000  0.000   1.0 |
 |  0.75  0.75  0.49  1  3  1  0.000  0.000  1.000  1.000  0.000  0.000   1.0 |
 |  0.75  0.25 -0.01  1  1  1  0.000  0.000  1.000  1.000  0.000  0.000   1.0 |
 |  0.75  0.25 -0.01  1  2  1  0.000  0.000  1.000  1.000  0.000  0.000   1.0 |
 |  0.75  0.25 -0.01  1  3  1  0.000  0.000  1.000  1.000  0.000  0.000   1.0 |
 |  0.75  0.75  0.01  1  1  1  0.000  0.000  1.000  1.000  0.000  0.000   1.0 |
 |  0.75  0.75  0.01  1  2  1  0.000  0.000  1.000  1.000  0.000  0.000   1.0 |
 |  0.75  0.75  0.01  1  3  1  0.000  0.000  1.000  1.000  0.000  0.000   1.0 |
 |  0.25  0.75  0.49  1  1  1  0.000  0.000  1.000  1.000  0.000  0.000   1.0 |
 |  0.25  0.75  0.49  1  2  1  0.000  0.000  1.000  1.000  0.000  0.000   1.0 |
 |  0.25  0.75  0.49  1  3  1  0.000  0.000  1.000  1.000  0.000  0.000   1.0 |
 |  0.25  0.25  0.51  1  1  1  0.000  0.000  1.000  1.000  0.000  0.000   1.0 |
 |  0.25  0.25  0.51  1  2  1  0.000  0.000  1.000  1.000  0.000  0.000   1.0 |
 |  0.25  0.25  0.51  1  3  1  0.000  0.000  1.000  1.000  0.000  0.000   1.0 |
 |  0.00  0.03  0.25  1  1  1  0.000  0.000  1.000  1.000  0.000  0.000   1.0 |
 |  0.00  0.03  0.25  1  2  1  0.000  0.000  1.000  1.000  0.000  0.000   1.0 |
 |  0.00  0.03  0.25  1  3  1  0.000  0.000  1.000  1.000  0.000  0.000   1.0 |
 |  0.00 -0.03  0.75  1  1  1  0.000  0.000  1.000  1.000  0.000  0.000   1.0 |
 |  0.00 -0.03  0.75  1  2  1  0.000  0.000  1.000  1.000  0.000  0.000   1.0 |
 |  0.00 -0.03  0.75  1  3  1  0.000  0.000  1.000  1.000  0.000  0.000   1.0 |
 |  0.50  0.53  0.75  1  1  1  0.000  0.000  1.000  1.000  0.000  0.000   1.0 |
 |  0.50  0.53  0.75  1  2  1  0.000  0.000  1.000  1.000  0.000  0.000   1.0 |
 |  0.50  0.53  0.75  1  3  1  0.000  0.000  1.000  1.000  0.000  0.000   1.0 |
 |  0.50  0.47  0.25  1  1  1  0.000  0.000  1.000  1.000  0.000  0.000   1.0 |
 |  0.50  0.47  0.25  1  2  1  0.000  0.000  1.000  1.000  0.000  0.000   1.0 |
 |  0.50  0.47  0.25  1  3  1  0.000  0.000  1.000  1.000  0.000  0.000   1.0 |
 +----------------------------------------------------------------------------+
  
                                ------------
                                K-POINT GRID
                                ------------
  
             Grid size =  5 x  5 x  5      Total points =  125
  
 *----------------------------------------------------------------------------*
 | k-point      Fractional Coordinate        Cartesian Coordinate (Ang^-1)    |
 +----------------------------------------------------------------------------+
 |     1    0.00000   0.00000   0.00000   |    0.00000   0.00000   0.00000    |
 |     2    0.00000   0.00000   0.20000   |    0.00000   0.00000   0.15828    |
 |     3    0.00000   0.00000   0.40000   |    0.00000   0.00000   0.31656    |
 |     4    0.00000   0.00000   0.60000   |    0.00000   0.00000   0.47484    |
 |     5    0.00000   0.00000   0.80000   |    0.00000   0.00000   0.63312    |
 |     6    0.00000   0.20000   0.00000   |    0.00000   0.22384   0.00000    |
 |     7    0.00000   0.20000   0.20000   |    0.00000   0.22384   0.15828    |
 |     8    0.00000   0.20000   0.40000   |    0.00000   0.22384   0.31656    |
 |     9    0.00000   0.20000   0.60000   |    0.00000   0.22384   0.47484    |
 |    10    0.00000   0.20000   0.80000   |    0.00000   0.22384   0.63312    |
 |    11    0.00000   0.40000   0.00000   |    0.00000   0.44768   0.00000    |
 |    12    0.00000   0.40000   0.20000   |    0.00000   0.44768   0.15828    |
 |    13    0.00000   0.40000   0.40000   |    0.00000   0.44768   0.31656    |
 |    14    0.00000   0.40000   0.60000   |    0.00000   0.44768   0.47484    |
 |    15    0.00000   0.40000   0.80000   |    0.00000   0.44768   0.63312    |
 |    16    0.00000   0.60000   0.00000   |    0.00000   0.67152   0.00000    |
 |    17    0.00000   0.60000   0.20000   |    0.00000   0.67152   0.15828    |
 |    18    0.00000   0.60000   0.40000   |    0.00000   0.67152   0.31656    |
 |    19    0.00000   0.60000   0.60000   |    0.00000   0.67152   0.47484    |
 |    20    0.00000   0.60000   0.80000   |    0.00000   0.67152   0.63312    |
 |    21    0.00000   0.80000   0.00000   |    0.00000   0.89537   0.00000    |
 |    22    0.00000   0.80000   0.20000   |    0.00000   0.89537   0.15828    |
 |    23    0.00000   0.80000   0.40000   |    0.00000   0.89537   0.31656    |
 |    24    0.00000   0.80000   0.60000   |    0.00000   0.89537   0.47484    |
 |    25    0.00000   0.80000   0.80000   |    0.00000   0.89537   0.63312    |
 |    26    0.20000   0.00000   0.00000   |    0.22384   0.00000   0.00000    |
 |    27    0.20000   0.00000   0.20000   |    0.22384   0.00000   0.15828    |
 |    28    0.20000   0.00000   0.40000   |    0.22384   0.00000   0.31656    |
 |    29    0.20000   0.00000   0.60000   |    0.22384   0.00000   0.47484    |
 |    30    0.20000   0.00000   0.80000   |    0.22384   0.00000   0.63312    |
 |    31    0.20000   0.20000   0.00000   |    0.22384   0.22384   0.00000    |
 |    32    0.20000   0.20000   0.20000   |    0.22384   0.22384   0.15828    |
 |    33    0.20000   0.20000   0.40000   |    0.22384   0.22384   0.31656    |
 |    34    0.20000   0.20000   0.60000   |    0.22384   0.22384   0.47484    |
 |    35    0.20000   0.20000   0.80000   |    0.22384   0.22384   0.63312    |
 |    36    0.20000   0.40000   0.00000   |    0.22384   0.44768   0.00000    |
 |    37    0.20000   0.40000   0.20000   |    0.22384   0.44768   0.15828    |
 |    38    0.20000   0.40000   0.40000   |    0.22384   0.44768   0.31656    |
 |    39    0.20000   0.40000   0.60000   |    0.22384   0.44768   0.47484    |
 |    40    0.20000   0.40000   0.80000   |    0.22384   0.44768   0.63312    |
 |    41    0.20000   0.60000   0.00000   |    0.22384   0.67152   0.00000    |
 |    42    0.20000   0.60000   0.20000   |    0.22384   0.67152   0.15828    |
 |    43    0.20000   0.60000   0.40000   |    0.22384   0.67152   0.31656    |
 |    44    0.20000   0.60000   0.60000   |    0.22384   0.67152   0.47484    |
 |    45    0.20000   0.60000   0.80000   |    0.22384   0.67152   0.63312    |
 |    46    0.20000   0.80000   0.00000   |    0.22384   0.89537   0.00000    |
 |    47    0.20000   0.80000   0.20000   |    0.22384   0.89537   0.15828    |
 |    48    0.20000   0.80000   0.40000   |    0.22384   0.89537   0.31656    |
 |    49    0.20000   0.80000   0.60000   |    0.22384   0.89537   0.47484    |
 |    50    0.20000   0.80000   0.80000   |    0.22384   0.89537   0.63312    |
 |    51    0.40000   0.00000   0.00000   |    0.44768   0.00000   0.00000    |
 |    52    0.40000   0.00000   0.20000   |    0.44768   0.00000   0.15828    |
 |    53    0.40000   0.00000   0.40000   |    0.44768   0.00000   0.31656    |
 |    54    0.40000   0.00000   0.60000   |    0.44768   0.00000   0.47484    |
 |    55    0.40000   0.00000   0.80000   |    0.44768   0.00000   0.63312    |
 |    56    0.40000   0.20000   0.00000   |    0.44768   0.22384   0.00000    |
 |    57    0.40000   0.20000   0.20000   |    0.44768   0.22384   0.15828    |
 |    58    0.40000   0.20000   0.40000   |    0.44768   0.22384   0.31656    |
 |    59    0.40000   0.20000   0.60000   |    0.44768   0.22384   0.47484    |
 |    60    0.40000   0.20000   0.80000   |    0.44768   0.22384   0.63312    |
 |    61    0.40000   0.40000   0.00000   |    0.44768   0.44768   0.00000    |
 |    62    0.40000   0.40000   0.20000   |    0.44768   0.44768   0.15828    |
 |    63    0.40000   0.40000   0.40000   |    0.44768   0.44768   0.31656    |
 |    64    0.40000   0.40000   0.60000   |    0.44768   0.44768   0.47484    |
 |    65    0.40000   0.40000   0.80000   |    0.44768   0.44768   0.63312    |
 |    66    0.40000   0.60000   0.00000   |    0.44768   0.67152   0.00000    |
 |    67    0.40000   0.60000   0.20000   |    0.44768   0.67152   0.15828    |
 |    68    0.40000   0.60000   0.40000   |    0.44768   0.67152   0.31656    |
 |    69    0.40000   0.60000   0.60000   |    0.44768   0.67152   0.47484    |
 |    70    0.40000   0.60000   0.80000   |    0.44768   0.67152   0.63312    |
 |    71    0.40000   0.80000   0.00000   |    0.44768   0.89537   0.00000    |
 |    72    0.40000   0.80000   0.20000   |    0.44768   0.89537   0.15828    |
 |    73    0.40000   0.80000   0.40000   |    0.44768   0.89537   0.31656    |
 |    74    0.40000   0.80000   0.60000   |    0.44768   0.89537   0.47484    |
 |    75    0.40000   0.80000   0.80000   |    0.44768   0.89537   0.63312    |
 |    76    0.60000   0.00000   0.00000   |    0.67152   0.00000   0.00000    |
 |    77    0.60000   0.00000   0.20000   |    0.67152   0.00000   0.15828    |
 |    78    0.60000   0.00000   0.40000   |    0.67152   0.00000   0.31656    |
 |    79    0.60000   0.00000   0.60000   |    0.67152   0.00000   0.47484    |
 |    80    0.60000   0.00000   0.80000   |    0.67152   0.00000   0.63312    |
 |    81    0.60000   0.20000   0.00000   |    0.67152   0.22384   0.00000    |
 |    82    0.60000   0.20000   0.20000   |    0.67152   0.22384   0.15828    |
 |    83    0.60000   0.20000   0.40000   |    0.67152   0.22384   0.31656    |
 |    84    0.60000   0.20000   0.60000   |    0.67152   0.22384   0.47484    |
 |    85    0.60000   0.20000   0.80000   |    0.67152   0.22384   0.63312    |
 |    86    0.60000   0.40000   0.00000   |    0.67152   0.44768   0.00000    |
 |    87    0.60000   0.40000   0.20000   |    0.67152   0.44768   0.15828    |
 |    88    0.60000   0.40000   0.40000   |    0.67152   0.44768   0.31656    |
 |    89    0.60000   0.40000   0.60000   |    0.67152   0.44768   0.47484    |
 |    90    0.60000   0.40000   0.80000   |    0.67152   0.44768   0.63312    |
 |    91    0.60000   0.60000   0.00000   |    0.67152   0.67152   0.00000    |
 |    92    0.60000   0.60000   0.20000   |    0.67152   0.67152   0.15828    |
 |    93    0.60000   0.60000   0.40000   |    0.67152   0.67152   0.31656    |
 |    94    0.60000   0.60000   0.60000   |    0.67152   0.67152   0.47484    |
 |    95    0.60000   0.60000   0.80000   |    0.67152   0.67152   0.63312    |
 |    96    0.60000   0.80000   0.00000   |    0.67152   0.89537   0.00000    |
 |    97    0.60000   0.80000   0.20000   |    0.67152   0.89537   0.15828    |
 |    98    0.60000   0.80000   0.40000   |    0.67152   0.89537   0.31656    |
 |    99    0.60000   0.80000   0.60000   |    0.67152   0.89537   0.47484    |
 |   100    0.60000   0.80000   0.80000   |    0.67152   0.89537   0.63312    |
 |   101    0.80000   0.00000   0.00000   |    0.89537   0.00000   0.00000    |
 |   102    0.80000   0.00000   0.20000   |    0.89537   0.00000   0.15828    |
 |   103    0.80000   0.00000   0.40000   |    0.89537   0.00000   0.31656    |
 |   104    0.80000   0.00000   0.60000   |    0.89537   0.00000   0.47484    |
 |   105    0.80000   0.00000   0.80000   |    0.89537   0.00000   0.63312    |
 |   106    0.80000   0.20000   0.00000   |    0.89537   0.22384   0.00000    |
 |   107    0.80000   0.20000   0.20000   |    0.89537   0.22384   0.15828    |
 |   108    0.80000   0.20000   0.40000   |    0.89537   0.22384   0.31656    |
 |   109    0.80000   0.20000   0.60000   |    0.89537   0.22384   0.47484    |
 |   110    0.80000   0.20000   0.80000   |    0.89537   0.22384   0.63312    |
 |   111    0.80000   0.40000   0.00000   |    0.89537   0.44768   0.00000    |
 |   112    0.80000   0.40000   0.20000   |    0.89537   0.44768   0.15828    |
 |   113    0.80000   0.40000   0.40000   |    0.89537   0.44768   0.31656    |
 |   114    0.80000   0.40000   0.60000   |    0.89537   0.44768   0.47484    |
 |   115    0.80000   0.40000   0.80000   |    0.89537   0.44768   0.63312    |
 |   116    0.80000   0.60000   0.00000   |    0.89537   0.67152   0.00000    |
 |   117    0.80000   0.60000   0.20000   |    0.89537   0.67152   0.15828    |
 |   118    0.80000   0.60000   0.40000   |    0.89537   0.67152   0.31656    |
 |   119    0.80000   0.60000   0.60000   |    0.89537   0.67152   0.47484    |
 |   120    0.80000   0.60000   0.80000   |    0.89537   0.67152   0.63312    |
 |   121    0.80000   0.80000   0.00000   |    0.89537   0.89537   0.00000    |
 |   122    0.80000   0.80000   0.20000   |    0.89537   0.89537   0.15828    |
 |   123    0.80000   0.80000   0.40000   |    0.89537   0.89537   0.31656    |
 |   124    0.80000   0.80000   0.60000   |    0.89537   0.89537   0.47484    |
 |   125    0.80000   0.80000   0.80000   |    0.89537   0.89537   0.63312    |
 *----------------------------------------------------------------------------*
  
  
 *---------------------------------- MAIN ------------------------------------*
 |  Number of Wannier Functions               :                56             |
 |  Number of Objective Wannier Functions     :                56             |
 |  Number of input Bloch states              :                56             |
 |  Output verbosity (1=low, 5=high)          :                 2             |
 |  Timing Level (1=low, 5=high)              :                 1             |
 |  Optimisation (0=memory, 3=speed)          :                 3             |
 |  Length Unit                               :               Ang             |
 |  Post-processing setup (write *.nnkp)      :                 F             |
 |  Using Gamma-only branch of algorithms     :                 F             |
 *----------------------------------------------------------------------------*
 *------------------------------- WANNIERISE ---------------------------------*
 |  Total number of iterations                :             10000             |
 |  Number of CG steps before reset           :                 5             |
 |  Trial step length for line search         :             2.000             |
 |  Convergence tolerence                     :         0.100E-11             |
 |  Convergence window                        :                 5             |
 |  Iterations between writing output         :               200             |
 |  Iterations between backing up to disk     :               100             |
 |  Write r^2_nm to file                      :                 F             |
 |  Write xyz WF centres to file              :                 F             |
 |  Write on-site energies <0n|H|0n> to file  :                 F             |
 |  Use guiding centre to control phases      :                 F             |
 |  Use phases for initial projections        :                 F             |
 *----------------------------------------------------------------------------*
 *-------------------------------- PLOTTING ----------------------------------*
 |  Plotting interpolated bandstructure       :                 T             |
 |   Number of K-path sections                :                 7             |
 |   Divisions along first K-path section     :               100             |
 |   Output format                            :           gnuplot             |
 |   Output mode                              :               s-k             |
 *----------------------------------------------------------------------------*
 |   K-space path sections:                                                   |
 |    From: G       0.000  0.000  0.000     To: X       0.000  0.500  0.000   |
 |    From: X       0.000  0.500  0.000     To: M       0.500  0.500  0.000   |
 |    From: M       0.500  0.500  0.000     To: G       0.000  0.000  0.000   |
 |    From: G       0.000  0.000  0.000     To: Z       0.000  0.000  0.500   |
 |    From: Z       0.000  0.000  0.500     To: R       0.000  0.500  0.500   |
 |    From: R       0.000  0.500  0.500     To: A       0.500  0.500  0.500   |
 |    From: A       0.500  0.500  0.500     To: Z       0.000  0.000  0.500   |
 *----------------------------------------------------------------------------*
 |  Plotting Hamiltonian in WF basis          :                 T             |
 *----------------------------------------------------------------------------*

 *---------------------------------- K-MESH ----------------------------------*
 +----------------------------------------------------------------------------+
 |                    Distance to Nearest-Neighbour Shells                    |
 |                    ------------------------------------                    |
 |          Shell             Distance (Ang^-1)          Multiplicity         |
 |          -----             -----------------          ------------         |
 |             1                   0.158280                      2            |
 |             2                   0.223841                      4            |
 |             3                   0.274149                      8            |
 |             4                   0.316560                      6            |
 |             5                   0.353924                      8            |
 |             6                   0.387705                      8            |
 |             7                   0.447683                     12            |
 |             8                   0.474839                     10            |
 |             9                   0.500525                      8            |
 |            10                   0.524955                     24            |
 |            11                   0.548297                      8            |
 |            12                   0.570686                      8            |
 |            13                   0.592229                     16            |
 |            14                   0.633119                      6            |
 |            15                   0.652604                     16            |
 |            16                   0.671524                     12            |
 |            17                   0.689926                     24            |
 |            18                   0.707849                     24            |
 |            19                   0.725329                     16            |
 |            20                   0.742398                      8            |
 |            21                   0.775409                     24            |
 |            22                   0.791399                     10            |
 |            23                   0.807072                     24            |
 |            24                   0.822446                     32            |
 |            25                   0.852363                     24            |
 |            26                   0.866934                     16            |
 |            27                   0.895366                     12            |
 |            28                   0.909248                     16            |
 |            29                   0.922922                     16            |
 |            30                   0.936396                     48            |
 |            31                   0.949679                     30            |
 |            32                   0.962779                      8            |
 |            33                   0.975702                     24            |
 |            34                   1.001049                     24            |
 |            35                   1.013485                     32            |
 |            36                   1.025770                     16            |
 +----------------------------------------------------------------------------+
 | The b-vectors are chosen automatically                                     |
 | Shell:  1 w_b   19.9580947      (Ang^2)                                    |
 | Shell:  1 w_b   19.9580947      (Ang^2)                                    |
 | Shell:  2 w_b    9.9790432      (Ang^2)                                    |
 | The following shells are used:   1,  2                 |
 +----------------------------------------------------------------------------+
 |                        Shell   # Nearest-Neighbours                        |
 |                        -----   --------------------                        |
 |                          1               2                                 |
 |                          2               4                                 |
 +----------------------------------------------------------------------------+
 | Completeness relation is fully satisfied [Eq. (B1), PRB 56, 12847 (1997)]  |
 +----------------------------------------------------------------------------+
 |                  b_k Vectors (Ang^-1) and Weights (Ang^2)                  |
 |                  ----------------------------------------                  |
 |            No.         b_k(x)      b_k(y)      b_k(z)        w_b           |
 |            ---        --------------------------------     --------        |
 |             1         0.000000    0.000000    0.158280    19.958095        |
 |             2         0.000000    0.000000   -0.158280    19.958095        |
 |             3         0.000000    0.223841    0.000000     9.979043        |
 |             4         0.223841    0.000000    0.000000     9.979043        |
 |             5         0.000000   -0.223841    0.000000     9.979043        |
 |             6        -0.223841    0.000000    0.000000     9.979043        |
 +----------------------------------------------------------------------------+
 |                           b_k Directions (Ang^-1)                          |
 |                           -----------------------                          |
 |            No.           x           y           z                         |
 |            ---        --------------------------------                     |
 |             1         0.000000    0.000000    0.158280                     |
 |             2         0.000000    0.223841    0.000000                     |
 |             3         0.223841    0.000000    0.000000                     |
 +----------------------------------------------------------------------------+
  
 Starting a new Wannier90 calculation ...


 Reading overlaps from smo.mmn    :  Created on 29Nov2025 at 20:40:16

 Reading projections from smo.amn :  Created on 29Nov2025 at 20:39:57

 *------------------------------- WANNIERISE ---------------------------------*
 +--------------------------------------------------------------------+<-- CONV
 | Iter  Delta Spread     RMS Gradient      Spread (Ang^2)      Time  |<-- CONV
 +--------------------------------------------------------------------+<-- CONV

 ------------------------------------------------------------------------------
 Initial State
  WF centre and spread    1  ( -0.000512, -0.000691,  0.000185 )     2.22671045
  WF centre and spread    2  (  0.000171,  0.000302,  0.000283 )     2.22471219
  WF centre and spread    3  (  0.000028,  0.000028, -0.000017 )     1.46998159
  WF centre and spread    4  ( -0.000308,  0.000624,  3.969397 )     2.19652435
  WF centre and spread    5  ( -0.000099, -0.000696,  3.969371 )     2.19166922
  WF centre and spread    6  (  0.000002, -0.000001,  3.969664 )     1.46476288
  WF centre and spread    7  (  2.806644,  2.806605,  3.971900 )     2.19450979
  WF centre and spread    8  (  2.807393,  2.806773,  3.971119 )     2.18984756
  WF centre and spread    9  (  2.806931,  2.806925,  3.969718 )     1.46380708
  WF centre and spread   10  (  2.807171,  2.806739,  0.001469 )     2.20095064
  WF centre and spread   11  (  2.806866,  2.806473,  0.001721 )     2.20596026
  WF centre and spread   12  (  2.806985,  2.807007,  0.000013 )     1.47131638
  WF centre and spread   13  ( -0.000351, -0.006356,  0.025778 )    39.13285306
  WF centre and spread   14  ( -0.039153, -0.078832,  0.020970 )    37.17069199
  WF centre and spread   15  (  0.028500, -0.012412,  3.953847 )    37.13042819
  WF centre and spread   16  ( -0.071056, -0.003293,  3.984745 )    38.05383688
  WF centre and spread   17  (  2.833639,  2.800420,  4.112125 )    37.41487041
  WF centre and spread   18  (  2.734313,  2.748440,  3.937974 )    37.23930255
  WF centre and spread   19  (  2.784782,  2.801836,  0.090104 )    38.22700426
  WF centre and spread   20  (  2.839766,  2.753073, -0.004260 )    37.17649009
  WF centre and spread   21  (  1.403485,  4.210474,  0.122827 )     1.16253120
  WF centre and spread   22  (  1.403174,  4.203451,  0.120258 )     6.91262358
  WF centre and spread   23  (  1.407979,  4.208239,  0.111398 )     6.84755175
  WF centre and spread   24  (  1.403488,  1.403495, -0.122769 )     1.16259858
  WF centre and spread   25  (  1.404884,  1.399206, -0.113525 )     6.94430110
  WF centre and spread   26  (  1.407818,  1.396415, -0.103492 )     6.92368523
  WF centre and spread   27  (  4.210486,  1.403484,  4.091141 )     1.16590334
  WF centre and spread   28  (  4.207225,  1.402898,  4.093345 )     6.81494827
  WF centre and spread   29  (  4.205567,  1.400899,  4.086307 )     6.77561125
  WF centre and spread   30  (  4.210491,  4.210464,  3.848133 )     1.16473338
  WF centre and spread   31  (  4.199223,  4.207891,  3.853824 )     6.96503275
  WF centre and spread   32  (  4.201118,  4.206029,  3.859957 )     6.96709810
  WF centre and spread   33  (  4.210454,  1.403473, -0.122757 )     1.16223060
  WF centre and spread   34  (  4.212539,  1.404635, -0.120639 )     7.00559362
  WF centre and spread   35  (  4.206906,  1.400416, -0.108791 )     6.89294057
  WF centre and spread   36  (  4.210481,  4.210462,  0.122697 )     1.16279758
  WF centre and spread   37  (  4.207669,  4.201249,  0.125850 )     6.84965798
  WF centre and spread   38  (  4.202176,  4.206485,  0.114684 )     6.83267255
  WF centre and spread   39  (  1.403502,  4.210487,  3.848136 )     1.16509477
  WF centre and spread   40  (  1.400052,  4.202637,  3.848792 )     6.90877613
  WF centre and spread   41  (  1.401594,  4.204285,  3.857139 )     6.86534429
  WF centre and spread   42  (  1.403494,  1.403492,  4.091323 )     1.16587987
  WF centre and spread   43  (  1.396670,  1.409428,  4.091857 )     6.79611221
  WF centre and spread   44  (  1.399078,  1.406810,  4.083604 )     6.82941690
  WF centre and spread   45  ( -0.000790,  0.153016,  1.976194 )    12.32498283
  WF centre and spread   46  ( -0.000083,  0.150749,  1.984831 )     1.13415269
  WF centre and spread   47  (  0.000053,  0.184294,  1.984811 )     1.16633452
  WF centre and spread   48  (  0.004392, -0.155166,  5.958131 )    12.39988671
  WF centre and spread   49  ( -0.000147, -0.150835,  5.954472 )     1.13369084
  WF centre and spread   50  ( -0.000005, -0.184418,  5.954558 )     1.16583171
  WF centre and spread   51  (  2.807331,  2.968721,  6.029662 )    12.00065392
  WF centre and spread   52  (  2.807123,  2.957853,  5.954457 )     1.13409056
  WF centre and spread   53  (  2.806997,  2.991266,  5.954477 )     1.16635531
  WF centre and spread   54  (  2.805940,  2.638517,  2.001045 )    12.09990634
  WF centre and spread   55  (  2.807086,  2.656155,  1.984836 )     1.13455350
  WF centre and spread   56  (  2.806952,  2.622805,  1.984834 )     1.16673683
  Sum of centres and spreads (112.116118,111.992721,135.347710 )   502.51654120

      0     0.503E+03     0.0000000000      502.5165412023       0.00  <-- CONV
        O_D=      7.9245459 O_OD=    333.4934135 O_TOT=    502.5165412 <-- SPRD
 ------------------------------------------------------------------------------
 Cycle:      1
  WF centre and spread    1  ( -0.000333, -0.000664,  0.000178 )     1.96397423
  WF centre and spread    2  (  0.000414,  0.000296,  0.000079 )     1.97144355
  WF centre and spread    3  ( -0.000021,  0.000080, -0.000066 )     1.41561638
  WF centre and spread    4  ( -0.000303,  0.000466,  3.969654 )     1.93861830
  WF centre and spread    5  (  0.000304, -0.000550,  3.969492 )     1.94604500
  WF centre and spread    6  (  0.000026,  0.000027,  3.969690 )     1.40404909
  WF centre and spread    7  (  2.806610,  2.806706,  3.972162 )     1.94313762
  WF centre and spread    8  (  2.807577,  2.807225,  3.971399 )     1.94415529
  WF centre and spread    9  (  2.806977,  2.806912,  3.969802 )     1.40329710
  WF centre and spread   10  (  2.807002,  2.806814,  0.001761 )     1.94728287
  WF centre and spread   11  (  2.807373,  2.806347,  0.002049 )     1.96267751
  WF centre and spread   12  (  2.806931,  2.807017,  0.000008 )     1.41724954
  WF centre and spread   13  (  0.003973,  0.007833,  0.055681 )    38.15473684
  WF centre and spread   14  ( -0.036217, -0.083456, -0.010493 )    35.37514195
  WF centre and spread   15  (  0.067748,  0.000658,  3.956472 )    34.88904300
  WF centre and spread   16  ( -0.101984, -0.008076,  3.999583 )    35.75259616
  WF centre and spread   17  (  2.831659,  2.806406,  4.135127 )    35.93644354
  WF centre and spread   18  (  2.716310,  2.724910,  3.964225 )    34.89931234
  WF centre and spread   19  (  2.799202,  2.785773,  0.233638 )    35.08258270
  WF centre and spread   20  (  2.857429,  2.757092, -0.024598 )    35.29625441
  WF centre and spread   21  (  1.403435,  4.210460,  0.124139 )     1.12640094
  WF centre and spread   22  (  1.406120,  4.202643,  0.121631 )     5.34876097
  WF centre and spread   23  (  1.411719,  4.208491,  0.111187 )     5.31066230
  WF centre and spread   24  (  1.403535,  1.403560, -0.123786 )     1.12750255
  WF centre and spread   25  (  1.405131,  1.402771, -0.116571 )     5.25132203
  WF centre and spread   26  (  1.408339,  1.398734, -0.105017 )     5.29816564
  WF centre and spread   27  (  4.210519,  1.403460,  4.092317 )     1.12554971
  WF centre and spread   28  (  4.209688,  1.404442,  4.091150 )     5.25359812
  WF centre and spread   29  (  4.207003,  1.401434,  4.085870 )     5.26357534
  WF centre and spread   30  (  4.210524,  4.210452,  3.847139 )     1.12485055
  WF centre and spread   31  (  4.199143,  4.204283,  3.861079 )     5.26394904
  WF centre and spread   32  (  4.201213,  4.203417,  3.864956 )     5.32232061
  WF centre and spread   33  (  4.210468,  1.403459, -0.123753 )     1.12767032
  WF centre and spread   34  (  4.213901,  1.407229, -0.121785 )     5.37814551
  WF centre and spread   35  (  4.207338,  1.402542, -0.110239 )     5.30478945
  WF centre and spread   36  (  4.210432,  4.210409,  0.123883 )     1.12791807
  WF centre and spread   37  (  4.207004,  4.198993,  0.125473 )     5.20231963
  WF centre and spread   38  (  4.199618,  4.207154,  0.113186 )     5.21620918
  WF centre and spread   39  (  1.403477,  4.210505,  3.847173 )     1.12428946
  WF centre and spread   40  (  1.400453,  4.203243,  3.851295 )     5.32988507
  WF centre and spread   41  (  1.402662,  4.205004,  3.858159 )     5.32336132
  WF centre and spread   42  (  1.403512,  1.403519,  4.092379 )     1.12611220
  WF centre and spread   43  (  1.394880,  1.408939,  4.093311 )     5.17221765
  WF centre and spread   44  (  1.397134,  1.404012,  4.085575 )     5.25116410
  WF centre and spread   45  (  0.001939,  0.157906,  1.980376 )     9.77635430
  WF centre and spread   46  ( -0.000048,  0.151370,  1.984960 )     1.09087296
  WF centre and spread   47  (  0.000098,  0.185135,  1.984941 )     1.12173569
  WF centre and spread   48  (  0.011743, -0.160583,  5.968216 )     9.72868583
  WF centre and spread   49  ( -0.000274, -0.151483,  5.954370 )     1.08922465
  WF centre and spread   50  ( -0.000004, -0.185336,  5.954481 )     1.12217112
  WF centre and spread   51  (  2.810878,  2.982354,  6.040951 )     9.53169498
  WF centre and spread   52  (  2.807141,  2.958463,  5.954354 )     1.08810964
  WF centre and spread   53  (  2.807009,  2.991929,  5.954297 )     1.12268448
  WF centre and spread   54  (  2.808697,  2.632740,  1.997448 )     9.60288051
  WF centre and spread   55  (  2.807072,  2.655589,  1.984955 )     1.08870419
  WF centre and spread   56  (  2.807001,  2.622128,  1.984870 )     1.12385048
  Sum of centres and spreads (112.169177,111.991179,135.568816 )   447.63136602

      1    -0.549E+02    13.0884734129      447.6313660201       0.10  <-- CONV
        O_D=      8.6465673 O_OD=    277.8862169 O_TOT=    447.6313660 <-- SPRD
 Delta: O_D=  0.7220214E+00 O_OD= -0.5560720E+02 O_TOT= -0.5488518E+02 <-- DLTA
 ------------------------------------------------------------------------------
 Cycle:    200
  WF centre and spread    1  ( -0.000002, -0.000317,  0.000020 )     1.37611785
  WF centre and spread    2  ( -0.000149,  0.000039,  0.000345 )     1.38013921
  WF centre and spread    3  (  0.000459,  0.000709,  0.000008 )     1.33854238
  WF centre and spread    4  ( -0.000520, -0.000542,  3.969376 )     1.37556336
  WF centre and spread    5  ( -0.000182,  0.000227,  3.969866 )     1.37958859
  WF centre and spread    6  (  0.000106,  0.000501,  3.969535 )     1.33441735
  WF centre and spread    7  (  2.806712,  2.806713,  3.969718 )     1.37707320
  WF centre and spread    8  (  2.806582,  2.807417,  3.970528 )     1.37539842
  WF centre and spread    9  (  2.807362,  2.807904,  3.969577 )     1.33500928
  WF centre and spread   10  (  2.806805,  2.806731, -0.000126 )     1.38325456
  WF centre and spread   11  (  2.807164,  2.807013, -0.000092 )     1.38305369
  WF centre and spread   12  (  2.807587,  2.807647,  0.000018 )     1.34143117
  WF centre and spread   13  (  0.067188, -0.420243,  0.688988 )    28.83845018
  WF centre and spread   14  (  0.375283, -0.321597, -0.084965 )    23.05350892
  WF centre and spread   15  ( -0.420247, -0.230650,  4.716632 )    27.91283950
  WF centre and spread   16  ( -0.087817, -0.021547,  3.970618 )    22.66345271
  WF centre and spread   17  (  2.440259,  2.659795,  4.613018 )    24.52476724
  WF centre and spread   18  (  2.539635,  2.765080,  3.800064 )    31.36644213
  WF centre and spread   19  (  3.187076,  2.680527,  0.601502 )    22.96565841
  WF centre and spread   20  (  2.833467,  2.156270,  0.090860 )    23.94582122
  WF centre and spread   21  (  1.403359,  4.210717,  0.128440 )     1.06989005
  WF centre and spread   22  (  1.408362,  4.208049,  0.107631 )     1.35928854
  WF centre and spread   23  (  1.407170,  4.203417,  0.106187 )     1.33806651
  WF centre and spread   24  (  1.403440,  1.403616, -0.121317 )     1.06667970
  WF centre and spread   25  (  1.401747,  1.401983, -0.105520 )     1.35761652
  WF centre and spread   26  (  1.409420,  1.401988, -0.104868 )     1.35043728
  WF centre and spread   27  (  4.210279,  1.403666,  4.098504 )     1.09032687
  WF centre and spread   28  (  4.212103,  1.403234,  4.075316 )     1.35762880
  WF centre and spread   29  (  4.210227,  1.401654,  4.075437 )     1.35713652
  WF centre and spread   30  (  4.210482,  4.210705,  3.847008 )     1.08647904
  WF centre and spread   31  (  4.207336,  4.205512,  3.863998 )     1.35702063
  WF centre and spread   32  (  4.206418,  4.206720,  3.864441 )     1.34677160
  WF centre and spread   33  (  4.210347,  1.403739, -0.121274 )     1.06609495
  WF centre and spread   34  (  4.213271,  1.407511, -0.107115 )     1.38169578
  WF centre and spread   35  (  4.205278,  1.397371, -0.106081 )     1.37055275
  WF centre and spread   36  (  4.210522,  4.210417,  0.127620 )     1.07075003
  WF centre and spread   37  (  4.216311,  4.202803,  0.108226 )     1.34042989
  WF centre and spread   38  (  4.208312,  4.213604,  0.107482 )     1.35496903
  WF centre and spread   39  (  1.403014,  4.210835,  3.848732 )     1.08513701
  WF centre and spread   40  (  1.408098,  4.218299,  3.863456 )     1.36853919
  WF centre and spread   41  (  1.400685,  4.206538,  3.863731 )     1.34755150
  WF centre and spread   42  (  1.403661,  1.403110,  4.095951 )     1.08910132
  WF centre and spread   43  (  1.403338,  1.400062,  4.076137 )     1.37386851
  WF centre and spread   44  (  1.401842,  1.403975,  4.075587 )     1.36006052
  WF centre and spread   45  ( -0.001050,  0.129051,  1.997915 )     1.70497040
  WF centre and spread   46  ( -0.001434,  0.151239,  1.985312 )     1.05222779
  WF centre and spread   47  (  0.000986,  0.185813,  1.984763 )     1.06287482
  WF centre and spread   48  ( -0.000718, -0.134626,  5.961083 )     1.69629420
  WF centre and spread   49  (  0.000563, -0.155610,  5.954618 )     1.04997753
  WF centre and spread   50  (  0.000725, -0.189976,  5.954364 )     1.06394152
  WF centre and spread   51  (  2.805336,  2.934176,  5.972732 )     1.92962250
  WF centre and spread   52  (  2.806483,  2.956838,  5.954736 )     1.04680970
  WF centre and spread   53  (  2.807350,  2.987173,  5.954360 )     1.05845057
  WF centre and spread   54  (  2.807744,  2.674573,  2.003421 )     1.92624849
  WF centre and spread   55  (  2.805404,  2.653152,  1.985196 )     1.04628334
  WF centre and spread   56  (  2.808229,  2.621149,  1.985217 )     1.05523658
  Sum of centres and spreads (111.991408,110.264153,137.576915 )   267.68955931

    200    -0.128E-01     3.8316679804      267.6895593087      18.26  <-- CONV
        O_D=      3.3361757 O_OD=    103.2548018 O_TOT=    267.6895593 <-- SPRD
 Delta: O_D=  0.5807797E-02 O_OD= -0.1857454E-01 O_TOT= -0.1276675E-01 <-- DLTA
 ------------------------------------------------------------------------------
 Cycle:    400
  WF centre and spread    1  ( -0.000006, -0.000269, -0.000067 )     1.37367115
  WF centre and spread    2  ( -0.000077,  0.000003,  0.000250 )     1.37866777
  WF centre and spread    3  (  0.000451,  0.000692,  0.000007 )     1.34005636
  WF centre and spread    4  ( -0.000462, -0.000484,  3.969387 )     1.37354467
  WF centre and spread    5  ( -0.000139,  0.000191,  3.969832 )     1.37849381
  WF centre and spread    6  (  0.000121,  0.000551,  3.969536 )     1.33600944
  WF centre and spread    7  (  2.806731,  2.806722,  3.969632 )     1.37431714
  WF centre and spread    8  (  2.806614,  2.807349,  3.970438 )     1.37336078
  WF centre and spread    9  (  2.807261,  2.807932,  3.969580 )     1.33638220
  WF centre and spread   10  (  2.806807,  2.806734, -0.000145 )     1.38067165
  WF centre and spread   11  (  2.807111,  2.807037, -0.000091 )     1.38105705
  WF centre and spread   12  (  2.807532,  2.807643,  0.000007 )     1.34283637
  WF centre and spread   13  (  0.046303, -0.468556,  0.650021 )    28.36778017
  WF centre and spread   14  (  0.412034, -0.304392, -0.066951 )    22.60796149
  WF centre and spread   15  ( -0.471978, -0.244287,  4.733545 )    27.71030742
  WF centre and spread   16  ( -0.068744, -0.053525,  3.956787 )    21.76343720
  WF centre and spread   17  (  2.393387,  2.595064,  4.653912 )    24.97157823
  WF centre and spread   18  (  2.547151,  2.761005,  3.785301 )    31.37643319
  WF centre and spread   19  (  3.190607,  2.655096,  0.624088 )    23.01691330
  WF centre and spread   20  (  2.825108,  2.115895,  0.054727 )    23.55815368
  WF centre and spread   21  (  1.403352,  4.210745,  0.127786 )     1.06829857
  WF centre and spread   22  (  1.409204,  4.208050,  0.107474 )     1.34341138
  WF centre and spread   23  (  1.407589,  4.202676,  0.106163 )     1.32195173
  WF centre and spread   24  (  1.403444,  1.403604, -0.121469 )     1.06445003
  WF centre and spread   25  (  1.402096,  1.402345, -0.105493 )     1.34334627
  WF centre and spread   26  (  1.409611,  1.402741, -0.104877 )     1.33655518
  WF centre and spread   27  (  4.210275,  1.403674,  4.097902 )     1.08985655
  WF centre and spread   28  (  4.211722,  1.403196,  4.075352 )     1.34673234
  WF centre and spread   29  (  4.210056,  1.401709,  4.075445 )     1.34821703
  WF centre and spread   30  (  4.210501,  4.210707,  3.847021 )     1.08656907
  WF centre and spread   31  (  4.207132,  4.204686,  3.863921 )     1.34685413
  WF centre and spread   32  (  4.205785,  4.206522,  3.864382 )     1.33561108
  WF centre and spread   33  (  4.210364,  1.403749, -0.121414 )     1.06370808
  WF centre and spread   34  (  4.212936,  1.407777, -0.107037 )     1.36503581
  WF centre and spread   35  (  4.205267,  1.398114, -0.105951 )     1.35697298
  WF centre and spread   36  (  4.210521,  4.210435,  0.127029 )     1.06853971
  WF centre and spread   37  (  4.214995,  4.202696,  0.108018 )     1.32372640
  WF centre and spread   38  (  4.208165,  4.213191,  0.107419 )     1.33933770
  WF centre and spread   39  (  1.402956,  4.210866,  3.848621 )     1.08568246
  WF centre and spread   40  (  1.408483,  4.218377,  3.863447 )     1.35938937
  WF centre and spread   41  (  1.400660,  4.205902,  3.863713 )     1.33582558
  WF centre and spread   42  (  1.403667,  1.403127,  4.095301 )     1.08812103
  WF centre and spread   43  (  1.403852,  1.400443,  4.076010 )     1.36363812
  WF centre and spread   44  (  1.402145,  1.404502,  4.075517 )     1.34775054
  WF centre and spread   45  ( -0.000921,  0.129051,  1.998662 )     1.65354106
  WF centre and spread   46  ( -0.001224,  0.150934,  1.985278 )     1.05113887
  WF centre and spread   47  (  0.001039,  0.185164,  1.984794 )     1.06143339
  WF centre and spread   48  ( -0.000696, -0.134405,  5.959199 )     1.64648834
  WF centre and spread   49  (  0.000818, -0.155556,  5.954634 )     1.04879912
  WF centre and spread   50  (  0.000759, -0.189633,  5.954419 )     1.06263277
  WF centre and spread   51  (  2.804977,  2.933339,  5.970878 )     1.88480063
  WF centre and spread   52  (  2.806494,  2.956747,  5.954743 )     1.04655942
  WF centre and spread   53  (  2.807417,  2.987009,  5.954369 )     1.05755348
  WF centre and spread   54  (  2.807477,  2.674546,  2.006230 )     1.87978990
  WF centre and spread   55  (  2.805401,  2.653125,  1.985154 )     1.04560421
  WF centre and spread   56  (  2.808229,  2.621082,  1.985239 )     1.05408692
  Sum of centres and spreads (111.930360,110.051638,137.567672 )   265.36364234

    400    -0.419E-02     5.1628673619      265.3636423402      36.65  <-- CONV
        O_D=      3.2415931 O_OD=    101.0234674 O_TOT=    265.3636423 <-- SPRD
 Delta: O_D=  0.3042641E-02 O_OD= -0.7233350E-02 O_TOT= -0.4190709E-02 <-- DLTA
 ------------------------------------------------------------------------------
 Cycle:    600
  WF centre and spread    1  ( -0.000030, -0.000242, -0.000081 )     1.37218845
  WF centre and spread    2  (  0.000051, -0.000096,  0.000058 )     1.37762639
  WF centre and spread    3  (  0.000546,  0.000682, -0.000001 )     1.34221758
  WF centre and spread    4  ( -0.000398, -0.000422,  3.969438 )     1.37220413
  WF centre and spread    5  ( -0.000057,  0.000094,  3.969744 )     1.37810714
  WF centre and spread    6  (  0.000328,  0.000594,  3.969524 )     1.33837416
  WF centre and spread    7  (  2.806752,  2.806708,  3.969642 )     1.37232860
  WF centre and spread    8  (  2.806694,  2.807258,  3.970288 )     1.37193864
  WF centre and spread    9  (  2.807330,  2.807939,  3.969568 )     1.33845370
  WF centre and spread   10  (  2.806809,  2.806732, -0.000092 )     1.37833055
  WF centre and spread   11  (  2.807103,  2.807007, -0.000180 )     1.37918828
  WF centre and spread   12  (  2.807596,  2.807646, -0.000015 )     1.34475236
  WF centre and spread   13  (  0.024312, -0.507770,  0.609007 )    27.74027224
  WF centre and spread   14  (  0.443352, -0.299977, -0.047559 )    22.11410832
  WF centre and spread   15  ( -0.517585, -0.263889,  4.734803 )    27.51904513
  WF centre and spread   16  ( -0.053659, -0.097847,  3.948988 )    20.95508670
  WF centre and spread   17  (  2.344148,  2.528286,  4.703001 )    25.45700445
  WF centre and spread   18  (  2.567399,  2.668737,  3.789059 )    31.61607017
  WF centre and spread   19  (  3.194705,  2.620705,  0.655334 )    23.11388243
  WF centre and spread   20  (  2.810035,  2.062119,  0.013300 )    23.28337777
  WF centre and spread   21  (  1.403342,  4.210754,  0.127048 )     1.06639191
  WF centre and spread   22  (  1.410139,  4.207941,  0.107331 )     1.32885804
  WF centre and spread   23  (  1.408057,  4.201572,  0.106171 )     1.30663516
  WF centre and spread   24  (  1.403459,  1.403594, -0.121588 )     1.06220220
  WF centre and spread   25  (  1.402634,  1.402947, -0.105498 )     1.33007156
  WF centre and spread   26  (  1.410018,  1.403401, -0.104878 )     1.32353291
  WF centre and spread   27  (  4.210285,  1.403674,  4.097312 )     1.08921239
  WF centre and spread   28  (  4.211127,  1.403210,  4.075333 )     1.33935109
  WF centre and spread   29  (  4.209661,  1.401480,  4.075515 )     1.34169026
  WF centre and spread   30  (  4.210523,  4.210690,  3.846951 )     1.08652689
  WF centre and spread   31  (  4.206717,  4.203807,  3.863817 )     1.34241338
  WF centre and spread   32  (  4.204974,  4.205941,  3.864327 )     1.32966487
  WF centre and spread   33  (  4.210376,  1.403736, -0.121518 )     1.06105233
  WF centre and spread   34  (  4.212313,  1.408087, -0.106931 )     1.34916967
  WF centre and spread   35  (  4.205083,  1.398896, -0.105780 )     1.34433225
  WF centre and spread   36  (  4.210523,  4.210449,  0.126340 )     1.06600245
  WF centre and spread   37  (  4.213491,  4.202453,  0.107817 )     1.30899061
  WF centre and spread   38  (  4.207879,  4.212242,  0.107366 )     1.32553731
  WF centre and spread   39  (  1.402916,  4.210881,  3.848516 )     1.08614907
  WF centre and spread   40  (  1.408826,  4.218551,  3.863382 )     1.35775348
  WF centre and spread   41  (  1.400694,  4.204870,  3.863737 )     1.33115657
  WF centre and spread   42  (  1.403671,  1.403140,  4.094687 )     1.08710531
  WF centre and spread   43  (  1.404502,  1.400965,  4.075908 )     1.35668866
  WF centre and spread   44  (  1.402696,  1.404775,  4.075457 )     1.33909183
  WF centre and spread   45  ( -0.000812,  0.129142,  1.999703 )     1.60441851
  WF centre and spread   46  ( -0.001016,  0.150645,  1.985241 )     1.05030484
  WF centre and spread   47  (  0.001073,  0.184450,  1.984820 )     1.05990322
  WF centre and spread   48  ( -0.000563, -0.134209,  5.957071 )     1.59943219
  WF centre and spread   49  (  0.001024, -0.155448,  5.954647 )     1.04784895
  WF centre and spread   50  (  0.000771, -0.189234,  5.954457 )     1.06157701
  WF centre and spread   51  (  2.804859,  2.932681,  5.968769 )     1.83929611
  WF centre and spread   52  (  2.806508,  2.956694,  5.954794 )     1.04612544
  WF centre and spread   53  (  2.807480,  2.986926,  5.954396 )     1.05637157
  WF centre and spread   54  (  2.807287,  2.674493,  2.009072 )     1.83363693
  WF centre and spread   55  (  2.805411,  2.653128,  1.985126 )     1.04476370
  WF centre and spread   56  (  2.808216,  2.620980,  1.985255 )     1.05270740
  Sum of centres and spreads (111.869577,109.702566,137.577997 )   263.42052327

    600    -0.492E-01    14.4334733604      263.4205232684      55.04  <-- CONV
        O_D=      3.4795736 O_OD=     98.8423678 O_TOT=    263.4205233 <-- SPRD
 Delta: O_D= -0.3793025E-01 O_OD= -0.1123426E-01 O_TOT= -0.4916451E-01 <-- DLTA
 ------------------------------------------------------------------------------
 Cycle:    800
  WF centre and spread    1  ( -0.000050, -0.000216, -0.000071 )     1.37044433
  WF centre and spread    2  (  0.000039, -0.000082, -0.000027 )     1.37490408
  WF centre and spread    3  (  0.000544,  0.000685,  0.000005 )     1.34159305
  WF centre and spread    4  ( -0.000398, -0.000405,  3.969509 )     1.37076254
  WF centre and spread    5  ( -0.000084,  0.000099,  3.969747 )     1.37601217
  WF centre and spread    6  (  0.000386,  0.000645,  3.969524 )     1.33762722
  WF centre and spread    7  (  2.806745,  2.806690,  3.969642 )     1.37037198
  WF centre and spread    8  (  2.806675,  2.807263,  3.970209 )     1.36962009
  WF centre and spread    9  (  2.807306,  2.807973,  3.969566 )     1.33777329
  WF centre and spread   10  (  2.806770,  2.806716, -0.000021 )     1.37603694
  WF centre and spread   11  (  2.807023,  2.807064, -0.000200 )     1.37644299
  WF centre and spread   12  (  2.807575,  2.807644, -0.000015 )     1.34369868
  WF centre and spread   13  (  0.008877, -0.528673,  0.579916 )    27.17745003
  WF centre and spread   14  (  0.465461, -0.290802, -0.037950 )    21.65358865
  WF centre and spread   15  ( -0.566555, -0.266047,  4.789576 )    27.18898391
  WF centre and spread   16  ( -0.043902, -0.127134,  3.936768 )    20.38551029
  WF centre and spread   17  (  2.306558,  2.471944,  4.744966 )    25.78556813
  WF centre and spread   18  (  2.584165,  2.638415,  3.763440 )    31.70917862
  WF centre and spread   19  (  3.199016,  2.587208,  0.682632 )    23.22637783
  WF centre and spread   20  (  2.792606,  2.021358, -0.022856 )    23.14491339
  WF centre and spread   21  (  1.403317,  4.210776,  0.126469 )     1.06480619
  WF centre and spread   22  (  1.410870,  4.207824,  0.107201 )     1.31803539
  WF centre and spread   23  (  1.408446,  4.200817,  0.106145 )     1.29526970
  WF centre and spread   24  (  1.403458,  1.403572, -0.121671 )     1.06049990
  WF centre and spread   25  (  1.403193,  1.403543, -0.105525 )     1.32024238
  WF centre and spread   26  (  1.410405,  1.404165, -0.104927 )     1.31359459
  WF centre and spread   27  (  4.210262,  1.403704,  4.096823 )     1.08855132
  WF centre and spread   28  (  4.210582,  1.403337,  4.075349 )     1.33223238
  WF centre and spread   29  (  4.209279,  1.401668,  4.075494 )     1.33680141
  WF centre and spread   30  (  4.210535,  4.210686,  3.846849 )     1.08593448
  WF centre and spread   31  (  4.206327,  4.202997,  3.863670 )     1.33667142
  WF centre and spread   32  (  4.204295,  4.205554,  3.864233 )     1.32318375
  WF centre and spread   33  (  4.210360,  1.403753, -0.121580 )     1.05942556
  WF centre and spread   34  (  4.211711,  1.408352, -0.106841 )     1.33765131
  WF centre and spread   35  (  4.204863,  1.399765, -0.105700 )     1.33510044
  WF centre and spread   36  (  4.210509,  4.210453,  0.125844 )     1.06415764
  WF centre and spread   37  (  4.212211,  4.202172,  0.107684 )     1.29857986
  WF centre and spread   38  (  4.207579,  4.211614,  0.107288 )     1.31459474
  WF centre and spread   39  (  1.402880,  4.210905,  3.848403 )     1.08614788
  WF centre and spread   40  (  1.409195,  4.218413,  3.863297 )     1.35420751
  WF centre and spread   41  (  1.400912,  4.204081,  3.863620 )     1.32461870
  WF centre and spread   42  (  1.403663,  1.403142,  4.094152 )     1.08630308
  WF centre and spread   43  (  1.405065,  1.401570,  4.075817 )     1.35088270
  WF centre and spread   44  (  1.403224,  1.405213,  4.075398 )     1.33115334
  WF centre and spread   45  ( -0.000692,  0.129273,  2.000517 )     1.57421346
  WF centre and spread   46  ( -0.000845,  0.150446,  1.985178 )     1.04967013
  WF centre and spread   47  (  0.001091,  0.183932,  1.984827 )     1.05876747
  WF centre and spread   48  ( -0.000435, -0.134145,  5.955516 )     1.56862463
  WF centre and spread   49  (  0.001160, -0.155353,  5.954644 )     1.04677702
  WF centre and spread   50  (  0.000778, -0.188931,  5.954496 )     1.06052365
  WF centre and spread   51  (  2.804896,  2.932332,  5.967130 )     1.80580072
  WF centre and spread   52  (  2.806517,  2.956685,  5.954781 )     1.04585971
  WF centre and spread   53  (  2.807514,  2.986925,  5.954417 )     1.05540660
  WF centre and spread   54  (  2.807232,  2.674435,  2.010946 )     1.79876909
  WF centre and spread   55  (  2.805407,  2.653152,  1.985081 )     1.04384992
  WF centre and spread   56  (  2.808199,  2.620936,  1.985264 )     1.05134533
  Sum of centres and spreads (111.802722,109.498106,137.604648 )   261.59511160

    800    -0.486E-01     6.1830411152      261.5951115963      73.40  <-- CONV
        O_D=      3.3647958 O_OD=     97.1317339 O_TOT=    261.5951116 <-- SPRD
 Delta: O_D= -0.4313070E-01 O_OD= -0.5422441E-02 O_TOT= -0.4855314E-01 <-- DLTA
 ------------------------------------------------------------------------------
 Cycle:   1000
  WF centre and spread    1  ( -0.000068, -0.000190, -0.000068 )     1.37002393
  WF centre and spread    2  (  0.000019, -0.000066, -0.000100 )     1.37368972
  WF centre and spread    3  (  0.000539,  0.000686,  0.000008 )     1.34191304
  WF centre and spread    4  ( -0.000396, -0.000390,  3.969558 )     1.37039749
  WF centre and spread    5  ( -0.000122,  0.000117,  3.969761 )     1.37516312
  WF centre and spread    6  (  0.000434,  0.000691,  3.969518 )     1.33790169
  WF centre and spread    7  (  2.806741,  2.806665,  3.969623 )     1.36959340
  WF centre and spread    8  (  2.806653,  2.807284,  3.970155 )     1.36870451
  WF centre and spread    9  (  2.807284,  2.807997,  3.969562 )     1.33800301
  WF centre and spread   10  (  2.806741,  2.806702,  0.000032 )     1.37521551
  WF centre and spread   11  (  2.806941,  2.807120, -0.000214 )     1.37504184
  WF centre and spread   12  (  2.807560,  2.807643, -0.000022 )     1.34355287
  WF centre and spread   13  ( -0.003641, -0.540498,  0.555740 )    26.60638836
  WF centre and spread   14  (  0.483618, -0.283575, -0.033578 )    21.20935402
  WF centre and spread   15  ( -0.599442, -0.281194,  4.822766 )    26.93874972
  WF centre and spread   16  ( -0.043242, -0.118424,  3.930670 )    19.88239883
  WF centre and spread   17  (  2.268734,  2.425043,  4.784001 )    26.06475785
  WF centre and spread   18  (  2.602046,  2.609630,  3.759636 )    31.84972755
  WF centre and spread   19  (  3.205417,  2.550386,  0.714540 )    23.37753677
  WF centre and spread   20  (  2.772453,  1.979858, -0.059574 )    23.09126867
  WF centre and spread   21  (  1.403288,  4.210803,  0.125936 )     1.06330091
  WF centre and spread   22  (  1.411625,  4.207615,  0.107086 )     1.30907491
  WF centre and spread   23  (  1.408869,  4.199999,  0.106130 )     1.28601315
  WF centre and spread   24  (  1.403463,  1.403550, -0.121752 )     1.05901404
  WF centre and spread   25  (  1.403881,  1.404255, -0.105561 )     1.31212904
  WF centre and spread   26  (  1.410882,  1.405010, -0.104975 )     1.30546021
  WF centre and spread   27  (  4.210251,  1.403728,  4.096362 )     1.08810988
  WF centre and spread   28  (  4.210023,  1.403497,  4.075392 )     1.32676253
  WF centre and spread   29  (  4.208841,  1.401874,  4.075505 )     1.33276853
  WF centre and spread   30  (  4.210531,  4.210683,  3.846762 )     1.08543970
  WF centre and spread   31  (  4.205953,  4.202284,  3.863551 )     1.33245268
  WF centre and spread   32  (  4.203631,  4.205166,  3.864164 )     1.31881051
  WF centre and spread   33  (  4.210345,  1.403763, -0.121663 )     1.05803346
  WF centre and spread   34  (  4.211011,  1.408683, -0.106769 )     1.32808457
  WF centre and spread   35  (  4.204520,  1.400698, -0.105643 )     1.32771829
  WF centre and spread   36  (  4.210496,  4.210454,  0.125394 )     1.06230238
  WF centre and spread   37  (  4.210927,  4.201796,  0.107563 )     1.29035679
  WF centre and spread   38  (  4.207191,  4.210867,  0.107204 )     1.30575236
  WF centre and spread   39  (  1.402845,  4.210936,  3.848281 )     1.08618284
  WF centre and spread   40  (  1.409563,  4.218303,  3.863230 )     1.35308327
  WF centre and spread   41  (  1.401223,  4.203292,  3.863524 )     1.32040916
  WF centre and spread   42  (  1.403658,  1.403149,  4.093656 )     1.08588458
  WF centre and spread   43  (  1.405642,  1.402193,  4.075780 )     1.34550198
  WF centre and spread   44  (  1.403772,  1.405580,  4.075370 )     1.32496072
  WF centre and spread   45  ( -0.000567,  0.129400,  2.001297 )     1.54807838
  WF centre and spread   46  ( -0.000695,  0.150280,  1.985128 )     1.04931250
  WF centre and spread   47  (  0.001099,  0.183475,  1.984827 )     1.05778142
  WF centre and spread   48  ( -0.000313, -0.134107,  5.953978 )     1.54293625
  WF centre and spread   49  (  0.001265, -0.155252,  5.954639 )     1.04606596
  WF centre and spread   50  (  0.000774, -0.188648,  5.954521 )     1.05963753
  WF centre and spread   51  (  2.804973,  2.932143,  5.965514 )     1.77468111
  WF centre and spread   52  (  2.806531,  2.956701,  5.954768 )     1.04560876
  WF centre and spread   53  (  2.807535,  2.986972,  5.954434 )     1.05449607
  WF centre and spread   54  (  2.807194,  2.674421,  2.012520 )     1.76635645
  WF centre and spread   55  (  2.805413,  2.653183,  1.985038 )     1.04301420
  WF centre and spread   56  (  2.808183,  2.620916,  1.985267 )     1.05010801
  Sum of centres and spreads (111.742092,109.333147,137.638469 )   260.10506500

   1000    -0.125E-01     8.2295665207      260.1050650025      91.68  <-- CONV
        O_D=      3.3179831 O_OD=     95.6885001 O_TOT=    260.1050650 <-- SPRD
 Delta: O_D= -0.5428680E-02 O_OD= -0.7106704E-02 O_TOT= -0.1253538E-01 <-- DLTA
 ------------------------------------------------------------------------------
 Cycle:   1200
  WF centre and spread    1  ( -0.000085, -0.000170, -0.000103 )     1.36961282
  WF centre and spread    2  (  0.000019, -0.000074, -0.000158 )     1.37184423
  WF centre and spread    3  (  0.000572,  0.000695,  0.000007 )     1.34229051
  WF centre and spread    4  ( -0.000371, -0.000369,  3.969586 )     1.37008286
  WF centre and spread    5  ( -0.000140,  0.000111,  3.969797 )     1.37389411
  WF centre and spread    6  (  0.000526,  0.000767,  3.969519 )     1.33820990
  WF centre and spread    7  (  2.806761,  2.806662,  3.969572 )     1.36870870
  WF centre and spread    8  (  2.806659,  2.807282,  3.970110 )     1.36737762
  WF centre and spread    9  (  2.807310,  2.808026,  3.969556 )     1.33818151
  WF centre and spread   10  (  2.806724,  2.806701,  0.000051 )     1.37376598
  WF centre and spread   11  (  2.806880,  2.807167, -0.000200 )     1.37305571
  WF centre and spread   12  (  2.807586,  2.807662, -0.000033 )     1.34336247
  WF centre and spread   13  ( -0.018296, -0.545306,  0.531410 )    25.95191849
  WF centre and spread   14  (  0.502896, -0.272846, -0.031268 )    20.65524055
  WF centre and spread   15  ( -0.641385, -0.279766,  4.876049 )    26.62956666
  WF centre and spread   16  ( -0.027871, -0.132912,  3.921868 )    19.36498314
  WF centre and spread   17  (  2.226675,  2.369729,  4.838566 )    26.33530769
  WF centre and spread   18  (  2.604335,  2.565307,  3.744182 )    32.06560640
  WF centre and spread   19  (  3.211258,  2.504765,  0.758842 )    23.59551691
  WF centre and spread   20  (  2.744177,  1.929677, -0.096250 )    23.10272023
  WF centre and spread   21  (  1.403275,  4.210824,  0.125422 )     1.06268964
  WF centre and spread   22  (  1.412551,  4.207254,  0.106951 )     1.29986238
  WF centre and spread   23  (  1.409435,  4.199015,  0.106100 )     1.27629831
  WF centre and spread   24  (  1.403476,  1.403555, -0.121778 )     1.05808237
  WF centre and spread   25  (  1.404838,  1.405228, -0.105608 )     1.30399415
  WF centre and spread   26  (  1.411567,  1.406159, -0.105025 )     1.29684219
  WF centre and spread   27  (  4.210240,  1.403737,  4.095801 )     1.08740267
  WF centre and spread   28  (  4.209332,  1.403797,  4.075453 )     1.31696469
  WF centre and spread   29  (  4.208199,  1.402323,  4.075493 )     1.32719190
  WF centre and spread   30  (  4.210550,  4.210706,  3.846552 )     1.08460322
  WF centre and spread   31  (  4.205423,  4.201393,  3.863372 )     1.32491714
  WF centre and spread   32  (  4.202792,  4.204592,  3.864050 )     1.31342963
  WF centre and spread   33  (  4.210340,  1.403778, -0.121672 )     1.05730521
  WF centre and spread   34  (  4.210120,  1.409155, -0.106677 )     1.31802462
  WF centre and spread   35  (  4.203987,  1.401906, -0.105595 )     1.32017858
  WF centre and spread   36  (  4.210504,  4.210479,  0.124964 )     1.06103093
  WF centre and spread   37  (  4.209380,  4.201258,  0.107433 )     1.28215335
  WF centre and spread   38  (  4.206666,  4.209876,  0.107115 )     1.29673325
  WF centre and spread   39  (  1.402822,  4.210967,  3.848136 )     1.08592420
  WF centre and spread   40  (  1.410114,  4.217812,  3.863115 )     1.34779097
  WF centre and spread   41  (  1.401861,  4.202261,  3.863406 )     1.31476689
  WF centre and spread   42  (  1.403674,  1.403176,  4.092983 )     1.08559287
  WF centre and spread   43  (  1.406431,  1.403076,  4.075697 )     1.33702954
  WF centre and spread   44  (  1.404587,  1.406140,  4.075317 )     1.31735363
  WF centre and spread   45  ( -0.000450,  0.129605,  2.001790 )     1.53141003
  WF centre and spread   46  ( -0.000486,  0.150116,  1.985064 )     1.04829825
  WF centre and spread   47  (  0.001112,  0.182997,  1.984826 )     1.05652953
  WF centre and spread   48  ( -0.000219, -0.134153,  5.952948 )     1.52171810
  WF centre and spread   49  (  0.001393, -0.155122,  5.954632 )     1.04500292
  WF centre and spread   50  (  0.000763, -0.188314,  5.954536 )     1.05884747
  WF centre and spread   51  (  2.805106,  2.932088,  5.963841 )     1.73929339
  WF centre and spread   52  (  2.806590,  2.956731,  5.954751 )     1.04515383
  WF centre and spread   53  (  2.807548,  2.987065,  5.954449 )     1.05350612
  WF centre and spread   54  (  2.807199,  2.674351,  2.013932 )     1.72908183
  WF centre and spread   55  (  2.805431,  2.653243,  1.984988 )     1.04197591
  WF centre and spread   56  (  2.808162,  2.620948,  1.985261 )     1.04872269
  Sum of centres and spreads (111.658546,109.131133,137.703125 )   258.52694891

   1200    -0.515E-02     1.5629015187      258.5269489123     110.03  <-- CONV
        O_D=      3.2769543 O_OD=     94.1514127 O_TOT=    258.5269489 <-- SPRD
 Delta: O_D=  0.1253179E-02 O_OD= -0.6402578E-02 O_TOT= -0.5149398E-02 <-- DLTA
 ------------------------------------------------------------------------------
 Cycle:   1400
  WF centre and spread    1  ( -0.000125, -0.000166, -0.000102 )     1.36962999
  WF centre and spread    2  (  0.000005, -0.000060, -0.000229 )     1.37149680
  WF centre and spread    3  (  0.000539,  0.000688,  0.000017 )     1.34302208
  WF centre and spread    4  ( -0.000372, -0.000368,  3.969610 )     1.37017412
  WF centre and spread    5  ( -0.000169,  0.000126,  3.969790 )     1.37373204
  WF centre and spread    6  (  0.000540,  0.000809,  3.969519 )     1.33893237
  WF centre and spread    7  (  2.806758,  2.806648,  3.969543 )     1.36841392
  WF centre and spread    8  (  2.806647,  2.807300,  3.970048 )     1.36721282
  WF centre and spread    9  (  2.807286,  2.808031,  3.969560 )     1.33878457
  WF centre and spread   10  (  2.806706,  2.806688,  0.000069 )     1.37311650
  WF centre and spread   11  (  2.806826,  2.807210, -0.000206 )     1.37234283
  WF centre and spread   12  (  2.807563,  2.807666, -0.000035 )     1.34366508
  WF centre and spread   13  ( -0.029204, -0.543642,  0.514161 )    25.43670946
  WF centre and spread   14  (  0.515035, -0.264934, -0.031355 )    20.22825897
  WF centre and spread   15  ( -0.671569, -0.283948,  4.913028 )    26.40161352
  WF centre and spread   16  ( -0.023385, -0.137161,  3.917586 )    18.97639040
  WF centre and spread   17  (  2.195499,  2.332835,  4.873460 )    26.50278411
  WF centre and spread   18  (  2.614416,  2.545627,  3.735210 )    32.26961427
  WF centre and spread   19  (  3.223970,  2.472007,  0.803410 )    23.78422566
  WF centre and spread   20  (  2.721344,  1.883715, -0.127087 )    23.13329357
  WF centre and spread   21  (  1.403249,  4.210846,  0.125022 )     1.06159490
  WF centre and spread   22  (  1.413305,  4.206905,  0.106848 )     1.29371191
  WF centre and spread   23  (  1.409915,  4.198222,  0.106087 )     1.26965247
  WF centre and spread   24  (  1.403477,  1.403539, -0.121804 )     1.05701056
  WF centre and spread   25  (  1.405699,  1.406094, -0.105660 )     1.29826841
  WF centre and spread   26  (  1.412203,  1.407181, -0.105082 )     1.29100953
  WF centre and spread   27  (  4.210215,  1.403766,  4.095392 )     1.08693083
  WF centre and spread   28  (  4.208813,  1.404078,  4.075487 )     1.31211409
  WF centre and spread   29  (  4.207717,  1.402632,  4.075508 )     1.32335484
  WF centre and spread   30  (  4.210549,  4.210714,  3.846456 )     1.08387894
  WF centre and spread   31  (  4.204952,  4.200725,  3.863270 )     1.32154646
  WF centre and spread   32  (  4.202167,  4.204142,  3.863971 )     1.30969472
  WF centre and spread   33  (  4.210317,  1.403782, -0.121729 )     1.05632340
  WF centre and spread   34  (  4.209358,  1.409564, -0.106610 )     1.31076660
  WF centre and spread   35  (  4.203488,  1.402903, -0.105564 )     1.31496533
  WF centre and spread   36  (  4.210509,  4.210478,  0.124674 )     1.05970583
  WF centre and spread   37  (  4.208141,  4.200741,  0.107339 )     1.27674507
  WF centre and spread   38  (  4.206160,  4.209022,  0.107042 )     1.29037906
  WF centre and spread   39  (  1.402798,  4.210988,  3.848035 )     1.08593775
  WF centre and spread   40  (  1.410496,  4.217439,  3.863051 )     1.34695992
  WF centre and spread   41  (  1.402371,  4.201534,  3.863323 )     1.31142442
  WF centre and spread   42  (  1.403663,  1.403172,  4.092567 )     1.08527941
  WF centre and spread   43  (  1.407056,  1.403795,  4.075643 )     1.33244043
  WF centre and spread   44  (  1.405212,  1.406593,  4.075274 )     1.31231787
  WF centre and spread   45  ( -0.000391,  0.129731,  2.002549 )     1.51417817
  WF centre and spread   46  ( -0.000362,  0.150015,  1.985025 )     1.04790616
  WF centre and spread   47  (  0.001109,  0.182650,  1.984824 )     1.05564175
  WF centre and spread   48  ( -0.000112, -0.134178,  5.951582 )     1.50535576
  WF centre and spread   49  (  0.001443, -0.155012,  5.954621 )     1.04441615
  WF centre and spread   50  (  0.000743, -0.188072,  5.954547 )     1.05822628
  WF centre and spread   51  (  2.805226,  2.932209,  5.962508 )     1.71212027
  WF centre and spread   52  (  2.806620,  2.956770,  5.954748 )     1.04477736
  WF centre and spread   53  (  2.807550,  2.987172,  5.954460 )     1.05274189
  WF centre and spread   54  (  2.807245,  2.674352,  2.014791 )     1.70096385
  WF centre and spread   55  (  2.805441,  2.653285,  1.984951 )     1.04127427
  WF centre and spread   56  (  2.808143,  2.620997,  1.985254 )     1.04778056
  Sum of centres and spreads (111.602795,108.997843,137.754395 )   257.38080827

   1400    -0.235E-02     4.4707207733      257.3808082720     128.42  <-- CONV
        O_D=      3.2693452 O_OD=     93.0128812 O_TOT=    257.3808083 <-- SPRD
 Delta: O_D= -0.8973115E-03 O_OD= -0.1457409E-02 O_TOT= -0.2354720E-02 <-- DLTA
 ------------------------------------------------------------------------------
 Cycle:   1600
  WF centre and spread    1  ( -0.000046, -0.000065, -0.000174 )     1.37051078
  WF centre and spread    2  (  0.000103, -0.000147, -0.000351 )     1.37371612
  WF centre and spread    3  (  0.000460,  0.000676,  0.000029 )     1.34475258
  WF centre and spread    4  ( -0.000253, -0.000270,  3.969558 )     1.37125702
  WF centre and spread    5  ( -0.000102,  0.000048,  3.969749 )     1.37574513
  WF centre and spread    6  (  0.000519,  0.000873,  3.969525 )     1.34070095
  WF centre and spread    7  (  2.806872,  2.806732,  3.969412 )     1.36880620
  WF centre and spread    8  (  2.806741,  2.807237,  3.969935 )     1.36884021
  WF centre and spread    9  (  2.807228,  2.808030,  3.969567 )     1.34034967
  WF centre and spread   10  (  2.806842,  2.806779,  0.000030 )     1.37397925
  WF centre and spread   11  (  2.806873,  2.807169, -0.000263 )     1.37377747
  WF centre and spread   12  (  2.807503,  2.807686, -0.000035 )     1.34486352
  WF centre and spread   13  ( -0.042488, -0.535318,  0.492485 )    24.78965207
  WF centre and spread   14  (  0.531752, -0.255681, -0.030969 )    19.79226365
  WF centre and spread   15  ( -0.719163, -0.285915,  4.964811 )    26.11750475
  WF centre and spread   16  ( -0.013712, -0.139374,  3.913227 )    18.53427720
  WF centre and spread   17  (  2.149678,  2.280783,  4.929937 )    26.72320562
  WF centre and spread   18  (  2.653632,  2.512447,  3.723243 )    32.47607596
  WF centre and spread   19  (  3.244180,  2.436647,  0.868151 )    23.99471679
  WF centre and spread   20  (  2.690104,  1.835338, -0.166657 )    23.21510951
  WF centre and spread   21  (  1.403238,  4.210866,  0.124569 )     1.06078980
  WF centre and spread   22  (  1.414358,  4.206309,  0.106734 )     1.28709879
  WF centre and spread   23  (  1.410640,  4.197083,  0.106067 )     1.26321979
  WF centre and spread   24  (  1.403502,  1.403554, -0.121759 )     1.05615027
  WF centre and spread   25  (  1.406975,  1.407345, -0.105726 )     1.29242524
  WF centre and spread   26  (  1.413169,  1.408610, -0.105161 )     1.28533486
  WF centre and spread   27  (  4.210230,  1.403775,  4.094987 )     1.08670426
  WF centre and spread   28  (  4.207989,  1.404661,  4.075523 )     1.30512263
  WF centre and spread   29  (  4.206902,  1.403270,  4.075514 )     1.31926918
  WF centre and spread   30  (  4.210566,  4.210724,  3.846273 )     1.08411281
  WF centre and spread   31  (  4.204191,  4.199688,  3.863170 )     1.31654053
  WF centre and spread   32  (  4.201282,  4.203416,  3.863882 )     1.30635609
[...]
  WF centre and spread   13  ( -0.004148, -0.182137,  0.193943 )    17.99867705
  WF centre and spread   14  (  0.052390, -0.231862, -0.007681 )    13.32037930
  WF centre and spread   15  ( -2.332815,  0.138108,  5.304489 )    23.65689175
  WF centre and spread   16  (  0.070089, -0.144251,  3.965145 )    13.75309997
  WF centre and spread   17  (  0.565513,  2.215215,  5.709143 )    26.26788232
  WF centre and spread   18  (  2.793552,  1.481603,  3.745314 )    34.58843423
  WF centre and spread   19  (  3.460444,  1.909633,  1.925585 )    26.17305511
  WF centre and spread   20  (  2.448079,  0.766240, -1.669170 )    21.23014796
  WF centre and spread   21  (  1.403097,  4.211045,  0.126619 )     1.08041888
  WF centre and spread   22  (  1.440890,  4.174561,  0.105442 )     1.31889008
  WF centre and spread   23  (  1.437348,  4.164443,  0.106718 )     1.32968996
  WF centre and spread   24  (  1.403687,  1.403207, -0.108282 )     1.07828141
  WF centre and spread   25  (  1.428198,  1.431932, -0.106596 )     1.31597407
  WF centre and spread   26  (  1.433397,  1.433723, -0.106290 )     1.31112290
  WF centre and spread   27  (  4.209566,  1.403807,  4.089956 )     1.08533236
  WF centre and spread   28  (  4.198263,  1.424862,  4.076016 )     1.29117102
  WF centre and spread   29  (  4.191838,  1.422962,  4.075828 )     1.29656667
  WF centre and spread   30  (  4.210588,  4.210841,  3.836366 )     1.08094838
  WF centre and spread   31  (  4.191157,  4.179246,  3.862713 )     1.30959740
  WF centre and spread   32  (  4.187177,  4.183593,  3.863639 )     1.31661612
  WF centre and spread   33  (  4.209635,  1.403725, -0.118849 )     1.07763749
  WF centre and spread   34  (  4.191204,  1.429421, -0.106246 )     1.30575632
  WF centre and spread   35  (  4.186038,  1.432158, -0.106290 )     1.31736741
  WF centre and spread   36  (  4.210530,  4.210725,  0.132611 )     1.07260901
  WF centre and spread   37  (  4.176597,  4.171637,  0.105888 )     1.30590583
  WF centre and spread   38  (  4.181409,  4.174359,  0.106666 )     1.31248332
  WF centre and spread   39  (  1.402961,  4.211105,  3.842942 )     1.08338261
  WF centre and spread   40  (  1.425161,  4.190277,  3.863222 )     1.31572253
  WF centre and spread   41  (  1.427551,  4.175069,  3.862806 )     1.31282004
  WF centre and spread   42  (  1.403659,  1.403078,  4.077145 )     1.09307671
  WF centre and spread   43  (  1.424514,  1.427910,  4.076071 )     1.31535998
  WF centre and spread   44  (  1.428332,  1.426670,  4.075599 )     1.28769464
  WF centre and spread   45  ( -0.000042,  0.132514,  2.032836 )     1.50074150
  WF centre and spread   46  (  0.002532,  0.150132,  1.984714 )     1.03797802
  WF centre and spread   47  (  0.000524,  0.178061,  1.984688 )     1.04829091
  WF centre and spread   48  (  0.000482, -0.136216,  5.912427 )     1.46723564
  WF centre and spread   49  (  0.002292, -0.152589,  5.954357 )     1.03412358
  WF centre and spread   50  ( -0.001288, -0.187143,  5.954502 )     1.07025584
  WF centre and spread   51  (  2.807784,  2.938628,  5.950838 )     1.44804930
  WF centre and spread   52  (  2.807837,  2.956836,  5.954573 )     1.05702146
  WF centre and spread   53  (  2.808375,  2.989494,  5.954442 )     1.05033948
  WF centre and spread   54  (  2.807442,  2.674400,  1.995336 )     1.36346887
  WF centre and spread   55  (  2.805873,  2.654405,  1.984807 )     1.03865385
  WF centre and spread   56  (  2.808810,  2.624339,  1.984813 )     1.04699616
  Sum of centres and spreads (108.148447,106.919435,138.266777 )   237.31850054

   9600    -0.117E-01     4.5641953026      237.3185005404     879.59  <-- CONV
        O_D=      2.4385215 O_OD=     73.7813972 O_TOT=    237.3185005 <-- SPRD
 Delta: O_D= -0.8490985E-02 O_OD= -0.3252022E-02 O_TOT= -0.1174301E-01 <-- DLTA
 ------------------------------------------------------------------------------
 Cycle:   9800
  WF centre and spread    1  ( -0.000467, -0.000245,  0.000280 )     1.38948504
  WF centre and spread    2  ( -0.000071, -0.000203, -0.001091 )     1.39386976
  WF centre and spread    3  ( -0.000007,  0.000539,  0.000104 )     1.36051599
  WF centre and spread    4  ( -0.000513, -0.000285,  3.968886 )     1.39134527
  WF centre and spread    5  ( -0.000040, -0.000247,  3.970754 )     1.39003441
  WF centre and spread    6  (  0.000694,  0.000749,  3.969625 )     1.36088102
  WF centre and spread    7  (  2.807300,  2.806961,  3.968820 )     1.38838348
  WF centre and spread    8  (  2.807020,  2.807190,  3.970019 )     1.39166393
  WF centre and spread    9  (  2.807077,  2.807585,  3.969958 )     1.35583110
  WF centre and spread   10  (  2.807142,  2.806920,  0.000589 )     1.39324490
  WF centre and spread   11  (  2.806874,  2.807241,  0.000013 )     1.38977306
  WF centre and spread   12  (  2.807083,  2.807427, -0.000266 )     1.35430713
  WF centre and spread   13  ( -0.004962, -0.178294,  0.195566 )    17.98307263
  WF centre and spread   14  (  0.045973, -0.230917, -0.007473 )    13.28233406
  WF centre and spread   15  ( -2.342736,  0.147592,  5.256292 )    23.86053566
  WF centre and spread   16  (  0.046584, -0.141620,  3.995141 )    13.98785354
  WF centre and spread   17  (  0.547204,  2.217908,  5.708606 )    26.32146751
  WF centre and spread   18  (  2.844781,  1.400630,  3.755463 )    34.77331530
  WF centre and spread   19  (  3.454787,  1.890913,  1.921832 )    26.20308034
  WF centre and spread   20  (  2.398991,  0.767975, -1.674141 )    21.36310467
  WF centre and spread   21  (  1.403093,  4.211050,  0.126575 )     1.08167050
  WF centre and spread   22  (  1.441129,  4.174101,  0.105400 )     1.32128451
  WF centre and spread   23  (  1.437791,  4.164126,  0.106716 )     1.33286153
  WF centre and spread   24  (  1.403700,  1.403178, -0.108147 )     1.08002008
  WF centre and spread   25  (  1.428244,  1.432024, -0.106628 )     1.31797942
  WF centre and spread   26  (  1.433527,  1.433864, -0.106326 )     1.31282317
  WF centre and spread   27  (  4.209540,  1.403787,  4.090015 )     1.08586296
  WF centre and spread   28  (  4.198212,  1.425004,  4.075985 )     1.29413103
  WF centre and spread   29  (  4.191682,  1.423335,  4.075853 )     1.29844732
  WF centre and spread   30  (  4.210580,  4.210851,  3.836197 )     1.07988703
  WF centre and spread   31  (  4.191085,  4.179159,  3.862691 )     1.31120073
  WF centre and spread   32  (  4.187074,  4.183300,  3.863609 )     1.31876629
  WF centre and spread   33  (  4.209614,  1.403717, -0.118903 )     1.07916466
  WF centre and spread   34  (  4.190971,  1.429675, -0.106274 )     1.30771788
  WF centre and spread   35  (  4.185822,  1.432510, -0.106325 )     1.31868067
  WF centre and spread   36  (  4.210515,  4.210719,  0.132528 )     1.07296766
  WF centre and spread   37  (  4.176333,  4.171263,  0.105870 )     1.30842297
  WF centre and spread   38  (  4.180880,  4.173867,  0.106636 )     1.31527299
  WF centre and spread   39  (  1.402984,  4.211091,  3.842908 )     1.08337152
  WF centre and spread   40  (  1.425213,  4.189987,  3.863178 )     1.31961033
  WF centre and spread   41  (  1.427714,  4.174770,  3.862752 )     1.31820439
  WF centre and spread   42  (  1.403681,  1.403080,  4.076797 )     1.09351414
  WF centre and spread   43  (  1.424435,  1.427961,  4.076111 )     1.31705244
  WF centre and spread   44  (  1.428460,  1.426750,  4.075592 )     1.28956596
  WF centre and spread   45  ( -0.000069,  0.132544,  2.033084 )     1.50633392
  WF centre and spread   46  (  0.002541,  0.150143,  1.984716 )     1.03848787
  WF centre and spread   47  (  0.000518,  0.178024,  1.984661 )     1.04958629
  WF centre and spread   48  (  0.000477, -0.136164,  5.911952 )     1.46887845
  WF centre and spread   49  (  0.002283, -0.152572,  5.954323 )     1.03442917
  WF centre and spread   50  ( -0.001342, -0.187207,  5.954462 )     1.07237522
  WF centre and spread   51  (  2.807815,  2.938666,  5.950987 )     1.44762363
  WF centre and spread   52  (  2.807847,  2.956820,  5.954546 )     1.05820841
  WF centre and spread   53  (  2.808513,  2.989548,  5.954400 )     1.05097092
  WF centre and spread   54  (  2.807436,  2.674401,  1.994806 )     1.36234535
  WF centre and spread   55  (  2.805879,  2.654406,  1.984809 )     1.03907259
  WF centre and spread   56  (  2.808866,  2.624497,  1.984809 )     1.04887187
  Sum of centres and spreads (108.085757,106.840097,138.249339 )   238.16976265

   9800    -0.889E-01    22.4217624069      238.1697626489     897.70  <-- CONV
        O_D=      3.1004304 O_OD=     73.9707504 O_TOT=    238.1697626 <-- SPRD
 Delta: O_D= -0.9569601E-01 O_OD=  0.6768179E-02 O_TOT= -0.8892783E-01 <-- DLTA
 ------------------------------------------------------------------------------
 Cycle:  10000
  WF centre and spread    1  ( -0.000429, -0.000220,  0.000283 )     1.38719266
  WF centre and spread    2  ( -0.000032, -0.000227, -0.001076 )     1.39191992
  WF centre and spread    3  ( -0.000004,  0.000566,  0.000107 )     1.35952869
  WF centre and spread    4  ( -0.000480, -0.000268,  3.968871 )     1.38867360
  WF centre and spread    5  (  0.000010, -0.000280,  3.970727 )     1.38798346
  WF centre and spread    6  (  0.000699,  0.000723,  3.969620 )     1.35927845
  WF centre and spread    7  (  2.807308,  2.806996,  3.968815 )     1.38601644
  WF centre and spread    8  (  2.807057,  2.807159,  3.969997 )     1.38945414
  WF centre and spread    9  (  2.807073,  2.807566,  3.969973 )     1.35514668
  WF centre and spread   10  (  2.807176,  2.806951,  0.000604 )     1.39085401
  WF centre and spread   11  (  2.806907,  2.807220,  0.000012 )     1.38798115
  WF centre and spread   12  (  2.807075,  2.807433, -0.000264 )     1.35378812
  WF centre and spread   13  (  0.000215, -0.176362,  0.184742 )    17.92608789
  WF centre and spread   14  (  0.043326, -0.230633, -0.006942 )    13.20385742
  WF centre and spread   15  ( -2.370369,  0.150523,  5.239715 )    23.64301559
  WF centre and spread   16  (  0.065584, -0.143513,  3.958810 )    13.67077747
  WF centre and spread   17  (  0.531916,  2.238731,  5.722345 )    26.26676824
  WF centre and spread   18  (  2.820442,  1.408711,  3.763995 )    34.55538539
  WF centre and spread   19  (  3.456648,  1.879386,  1.939325 )    26.15993312
  WF centre and spread   20  (  2.414148,  0.767264, -1.711406 )    21.15795723
  WF centre and spread   21  (  1.403095,  4.211043,  0.126723 )     1.08163302
  WF centre and spread   22  (  1.441366,  4.173569,  0.105398 )     1.32237205
  WF centre and spread   23  (  1.438188,  4.163710,  0.106718 )     1.33427515
  WF centre and spread   24  (  1.403699,  1.403178, -0.107823 )     1.08105486
  WF centre and spread   25  (  1.428371,  1.432211, -0.106642 )     1.31799745
  WF centre and spread   26  (  1.433664,  1.434036, -0.106366 )     1.31372335
  WF centre and spread   27  (  4.209527,  1.403763,  4.090049 )     1.08463653
  WF centre and spread   28  (  4.198195,  1.425336,  4.076045 )     1.29218151
  WF centre and spread   29  (  4.191475,  1.423758,  4.075857 )     1.29712723
  WF centre and spread   30  (  4.210574,  4.210857,  3.836093 )     1.08045042
  WF centre and spread   31  (  4.190767,  4.178853,  3.862724 )     1.30960687
  WF centre and spread   32  (  4.186679,  4.182803,  3.863652 )     1.31720201
  WF centre and spread   33  (  4.209594,  1.403698, -0.118878 )     1.07877103
  WF centre and spread   34  (  4.190766,  1.429948, -0.106284 )     1.30773178
  WF centre and spread   35  (  4.185707,  1.432817, -0.106354 )     1.31889444
  WF centre and spread   36  (  4.210511,  4.210728,  0.132709 )     1.07365263
  WF centre and spread   37  (  4.176089,  4.170892,  0.105874 )     1.30974128
  WF centre and spread   38  (  4.180407,  4.173356,  0.106643 )     1.31635541
  WF centre and spread   39  (  1.402975,  4.211089,  3.842867 )     1.08313464
  WF centre and spread   40  (  1.425199,  4.189552,  3.863232 )     1.31536467
  WF centre and spread   41  (  1.427956,  4.174610,  3.862810 )     1.31434484
  WF centre and spread   42  (  1.403667,  1.403077,  4.076556 )     1.09416937
  WF centre and spread   43  (  1.424718,  1.428205,  4.076163 )     1.31524072
  WF centre and spread   44  (  1.428746,  1.427139,  4.075648 )     1.28892033
  WF centre and spread   45  ( -0.000031,  0.132633,  2.033385 )     1.50350237
  WF centre and spread   46  (  0.002576,  0.150141,  1.984734 )     1.03785583
  WF centre and spread   47  (  0.000494,  0.178039,  1.984686 )     1.04810705
  WF centre and spread   48  (  0.000452, -0.136207,  5.911529 )     1.46837149
  WF centre and spread   49  (  0.002250, -0.152563,  5.954342 )     1.03403284
  WF centre and spread   50  ( -0.001383, -0.187203,  5.954459 )     1.07230052
  WF centre and spread   51  (  2.807824,  2.938704,  5.951163 )     1.44574163
  WF centre and spread   52  (  2.807855,  2.956792,  5.954562 )     1.05852556
  WF centre and spread   53  (  2.808558,  2.989554,  5.954412 )     1.05081017
  WF centre and spread   54  (  2.807429,  2.674395,  1.994278 )     1.36128921
  WF centre and spread   55  (  2.805894,  2.654411,  1.984823 )     1.03859129
  WF centre and spread   56  (  2.808872,  2.624528,  1.984809 )     1.04777125
  Sum of centres and spreads (108.056997,106.859177,138.188853 )   236.93708044

  10000    -0.141E-01     3.4730399494      236.9370804443     915.89  <-- CONV
        O_D=      2.3530868 O_OD=     73.4854118 O_TOT=    236.9370804 <-- SPRD
 Delta: O_D= -0.7895723E-02 O_OD= -0.6198421E-02 O_TOT= -0.1409414E-01 <-- DLTA
 ------------------------------------------------------------------------------
 Final State
  WF centre and spread    1  ( -0.000429, -0.000220,  0.000283 )     1.38719266
  WF centre and spread    2  ( -0.000032, -0.000227, -0.001076 )     1.39191992
  WF centre and spread    3  ( -0.000004,  0.000566,  0.000107 )     1.35952869
  WF centre and spread    4  ( -0.000480, -0.000268,  3.968871 )     1.38867360
  WF centre and spread    5  (  0.000010, -0.000280,  3.970727 )     1.38798346
  WF centre and spread    6  (  0.000699,  0.000723,  3.969620 )     1.35927845
  WF centre and spread    7  (  2.807308,  2.806996,  3.968815 )     1.38601644
  WF centre and spread    8  (  2.807057,  2.807159,  3.969997 )     1.38945414
  WF centre and spread    9  (  2.807073,  2.807566,  3.969973 )     1.35514668
  WF centre and spread   10  (  2.807176,  2.806951,  0.000604 )     1.39085401
  WF centre and spread   11  (  2.806907,  2.807220,  0.000012 )     1.38798115
  WF centre and spread   12  (  2.807075,  2.807433, -0.000264 )     1.35378812
  WF centre and spread   13  (  0.000215, -0.176362,  0.184742 )    17.92608789
  WF centre and spread   14  (  0.043326, -0.230633, -0.006942 )    13.20385742
  WF centre and spread   15  ( -2.370369,  0.150523,  5.239715 )    23.64301559
  WF centre and spread   16  (  0.065584, -0.143513,  3.958810 )    13.67077747
  WF centre and spread   17  (  0.531916,  2.238731,  5.722345 )    26.26676824
  WF centre and spread   18  (  2.820442,  1.408711,  3.763995 )    34.55538539
  WF centre and spread   19  (  3.456648,  1.879386,  1.939325 )    26.15993312
  WF centre and spread   20  (  2.414148,  0.767264, -1.711406 )    21.15795723
  WF centre and spread   21  (  1.403095,  4.211043,  0.126723 )     1.08163302
  WF centre and spread   22  (  1.441366,  4.173569,  0.105398 )     1.32237205
  WF centre and spread   23  (  1.438188,  4.163710,  0.106718 )     1.33427515
  WF centre and spread   24  (  1.403699,  1.403178, -0.107823 )     1.08105486
  WF centre and spread   25  (  1.428371,  1.432211, -0.106642 )     1.31799745
  WF centre and spread   26  (  1.433664,  1.434036, -0.106366 )     1.31372335
  WF centre and spread   27  (  4.209527,  1.403763,  4.090049 )     1.08463653
  WF centre and spread   28  (  4.198195,  1.425336,  4.076045 )     1.29218151
  WF centre and spread   29  (  4.191475,  1.423758,  4.075857 )     1.29712723
  WF centre and spread   30  (  4.210574,  4.210857,  3.836093 )     1.08045042
  WF centre and spread   31  (  4.190767,  4.178853,  3.862724 )     1.30960687
  WF centre and spread   32  (  4.186679,  4.182803,  3.863652 )     1.31720201
  WF centre and spread   33  (  4.209594,  1.403698, -0.118878 )     1.07877103
  WF centre and spread   34  (  4.190766,  1.429948, -0.106284 )     1.30773178
  WF centre and spread   35  (  4.185707,  1.432817, -0.106354 )     1.31889444
  WF centre and spread   36  (  4.210511,  4.210728,  0.132709 )     1.07365263
  WF centre and spread   37  (  4.176089,  4.170892,  0.105874 )     1.30974128
  WF centre and spread   38  (  4.180407,  4.173356,  0.106643 )     1.31635541
  WF centre and spread   39  (  1.402975,  4.211089,  3.842867 )     1.08313464
  WF centre and spread   40  (  1.425199,  4.189552,  3.863232 )     1.31536467
  WF centre and spread   41  (  1.427956,  4.174610,  3.862810 )     1.31434484
  WF centre and spread   42  (  1.403667,  1.403077,  4.076556 )     1.09416937
  WF centre and spread   43  (  1.424718,  1.428205,  4.076163 )     1.31524072
  WF centre and spread   44  (  1.428746,  1.427139,  4.075648 )     1.28892033
  WF centre and spread   45  ( -0.000031,  0.132633,  2.033385 )     1.50350237
  WF centre and spread   46  (  0.002576,  0.150141,  1.984734 )     1.03785583
  WF centre and spread   47  (  0.000494,  0.178039,  1.984686 )     1.04810705
  WF centre and spread   48  (  0.000452, -0.136207,  5.911529 )     1.46837149
  WF centre and spread   49  (  0.002250, -0.152563,  5.954342 )     1.03403284
  WF centre and spread   50  ( -0.001383, -0.187203,  5.954459 )     1.07230052
  WF centre and spread   51  (  2.807824,  2.938704,  5.951163 )     1.44574163
  WF centre and spread   52  (  2.807855,  2.956792,  5.954562 )     1.05852556
  WF centre and spread   53  (  2.808558,  2.989554,  5.954412 )     1.05081017
  WF centre and spread   54  (  2.807429,  2.674395,  1.994278 )     1.36128921
  WF centre and spread   55  (  2.805894,  2.654411,  1.984823 )     1.03859129
  WF centre and spread   56  (  2.808872,  2.624528,  1.984809 )     1.04777125
  Sum of centres and spreads (108.056997,106.859177,138.188853 )   236.93708044

         Spreads (Ang^2)       Omega I      =   161.098581851
        ================       Omega D      =     2.353086830
                               Omega OD     =    73.485411763
    Final Spread (Ang^2)       Omega Total  =   236.937080444
 ------------------------------------------------------------------------------

 Writing checkpoint file smo.chk... done

 *---------------------------------------------------------------------------*
 |                               PLOTTING                                    |
 *---------------------------------------------------------------------------*


 Calculating interpolated band-structure

 Time to calculate interpolated band structure       2.111 (sec)

  
  Omega Invariant:   1-s^2 =   161.098581849 (Ang^2)
                   -2log s =  1272.147714113 (Ang^2)
                    acos^2 =   267.306107018 (Ang^2)

 *===========================================================================*
 |                             TIMING INFORMATION                            |
 *===========================================================================*
 |    Tag                                                Ncalls      Time (s)|
 |---------------------------------------------------------------------------|
 |kmesh: get                                        :         1         0.114|
 |overlap: read                                     :         1         4.583|
 |wann: main                                        :         1       914.457|
 |plot: main                                        :         1         6.197|
 *---------------------------------------------------------------------------*
 All done: wannier90 exiting
