
     Program PW2WANNIER v.7.3 starts on 19Dec2025 at 20:46:41 

     This program is part of the open-source Quantum ESPRESSO suite
     for quantum simulation of materials; please cite
         "P. Giannozzi et al., J. Phys.:Condens. Matter 21 395502 (2009);
         "P. Giannozzi et al., J. Phys.:Condens. Matter 29 465901 (2017);
         "P. Giannozzi et al., J. Chem. Phys. 152 154105 (2020);
          URL http://www.quantum-espresso.org", 
     in publications or presentations arising from this work. More details at
     http://www.quantum-espresso.org/quote

     Parallel version (MPI), running on    32 processors

     MPI processes distributed on     1 nodes
     R & G space division:  proc/nbgrp/npool/nimage =      32
     246741 MiB available memory on the printing compute node when the environment starts


     Reading nscf_save data

     Reading xml data from directory:

     ./out/smo.save/
     file Sr.pz-spn-kjpaw_psl.1.0.0.UPF: wavefunction(s)  4P renormalized
     file Mo.pz-spn-kjpaw_psl.1.0.0.UPF: wavefunction(s)  4S 4D renormalized
     file O.pz-n-kjpaw_psl.1.0.0.UPF: wavefunction(s)  2S 2P renormalized

     IMPORTANT: XC functional enforced from input :
     Exchange-correlation= PZ
                           (   1   1   0   0   0   0   0)
     Any further DFT definition will be discarded
     Please, verify this is what you really want


     Parallelization info
     --------------------
     sticks:   dense  smooth     PW     G-vecs:    dense   smooth      PW
     Min         178      89     26                13920     4919     783
     Max         179      90     28                13925     4924     786
     Sum        5713    2861    845               445525   157471   25097

     Using Slab Decomposition

     Reading collected, re-writing distributed wavefunctions

  Spin CASE ( default = unpolarized )

  Wannier mode is: standalone     

  -----------------
  *** Reading nnkp 
  -----------------

  Checking info from wannier.nnkp file

  - Real lattice is ok
  - Reciprocal lattice is ok
  - K-points are ok
  - Number of wannier functions is ok ( 76)
  - All guiding functions are given 

 Projections:
    0.000000    0.000000    0.000000  2  1  1    1.000000
    0.000000    0.000000    0.000000  2  2  1    1.000000
    0.000000    0.000000    0.000000  2  3  1    1.000000
    0.000000    0.000000    0.000000  2  4  1    1.000000
    0.000000    0.000000    0.000000  2  5  1    1.000000
    0.000000    0.000000    0.687500  2  1  1    1.000000
    0.000000    0.000000    0.687500  2  2  1    1.000000
    0.000000    0.000000    0.687500  2  3  1    1.000000
    0.000000    0.000000    0.687500  2  4  1    1.000000
    0.000000    0.000000    0.687500  2  5  1    1.000000
    0.500000    0.500000    0.687500  2  1  1    1.000000
    0.500000    0.500000    0.687500  2  2  1    1.000000
    0.500000    0.500000    0.687500  2  3  1    1.000000
    0.500000    0.500000    0.687500  2  4  1    1.000000
    0.500000    0.500000    0.687500  2  5  1    1.000000
    0.500000    0.500000    0.000000  2  1  1    1.000000
    0.500000    0.500000    0.000000  2  2  1    1.000000
    0.500000    0.500000    0.000000  2  3  1    1.000000
    0.500000    0.500000    0.000000  2  4  1    1.000000
    0.500000    0.500000    0.000000  2  5  1    1.000000
    0.000000    0.500000    0.343750  2  1  1    1.000000
    0.000000    0.500000    0.343750  2  2  1    1.000000
    0.000000    0.500000    0.343750  2  3  1    1.000000
    0.000000    0.500000    0.343750  2  4  1    1.000000
    0.000000    0.500000    0.343750  2  5  1    1.000000
    0.000000    0.500000    1.031250  2  1  1    1.000000
    0.000000    0.500000    1.031250  2  2  1    1.000000
    0.000000    0.500000    1.031250  2  3  1    1.000000
    0.000000    0.500000    1.031250  2  4  1    1.000000
    0.000000    0.500000    1.031250  2  5  1    1.000000
    0.500000    0.000000    1.031250  2  1  1    1.000000
    0.500000    0.000000    1.031250  2  2  1    1.000000
    0.500000    0.000000    1.031250  2  3  1    1.000000
    0.500000    0.000000    1.031250  2  4  1    1.000000
    0.500000    0.000000    1.031250  2  5  1    1.000000
    0.500000    0.000000    0.343750  2  1  1    1.000000
    0.500000    0.000000    0.343750  2  2  1    1.000000
    0.500000    0.000000    0.343750  2  3  1    1.000000
    0.500000    0.000000    0.343750  2  4  1    1.000000
    0.500000    0.000000    0.343750  2  5  1    1.000000
    0.250000    0.750000    0.000000  1  1  1    1.000000
    0.250000    0.750000    0.000000  1  2  1    1.000000
    0.250000    0.750000    0.000000  1  3  1    1.000000
    0.250000    0.250000    0.000000  1  1  1    1.000000
    0.250000    0.250000    0.000000  1  2  1    1.000000
    0.250000    0.250000    0.000000  1  3  1    1.000000
    0.750000    0.250000    0.687500  1  1  1    1.000000
    0.750000    0.250000    0.687500  1  2  1    1.000000
    0.750000    0.250000    0.687500  1  3  1    1.000000
    0.750000    0.750000    0.687500  1  1  1    1.000000
    0.750000    0.750000    0.687500  1  2  1    1.000000
    0.750000    0.750000    0.687500  1  3  1    1.000000
    0.750000    0.250000    0.000000  1  1  1    1.000000
    0.750000    0.250000    0.000000  1  2  1    1.000000
    0.750000    0.250000    0.000000  1  3  1    1.000000
    0.750000    0.750000    0.000000  1  1  1    1.000000
    0.750000    0.750000    0.000000  1  2  1    1.000000
    0.750000    0.750000    0.000000  1  3  1    1.000000
    0.250000    0.750000    0.687500  1  1  1    1.000000
    0.250000    0.750000    0.687500  1  2  1    1.000000
    0.250000    0.750000    0.687500  1  3  1    1.000000
    0.250000    0.250000    0.687500  1  1  1    1.000000
    0.250000    0.250000    0.687500  1  2  1    1.000000
    0.250000    0.250000    0.687500  1  3  1    1.000000
    0.000000    0.000000    0.343750  1  1  1    1.000000
    0.000000    0.000000    0.343750  1  2  1    1.000000
    0.000000    0.000000    0.343750  1  3  1    1.000000
    0.000000    0.000000    1.031250  1  1  1    1.000000
    0.000000    0.000000    1.031250  1  2  1    1.000000
    0.000000    0.000000    1.031250  1  3  1    1.000000
    0.500000    0.500000    1.031250  1  1  1    1.000000
    0.500000    0.500000    1.031250  1  2  1    1.000000
    0.500000    0.500000    1.031250  1  3  1    1.000000
    0.500000    0.500000    0.343750  1  1  1    1.000000
    0.500000    0.500000    0.343750  1  2  1    1.000000
    0.500000    0.500000    0.343750  1  3  1    1.000000

  Reading data about k-point neighbours 

  All neighbours are found 

  Opening pp-files 


  --------------------------
  *** Compute  A projections
  --------------------------

 Number of local k points =      125
       1       2       3       4       5       6       7       8       9      10
      11      12      13      14      15      16      17      18      19      20
      21      22      23      24      25      26      27      28      29      30
      31      32      33      34      35      36      37      38      39      40
      41      42      43      44      45      46      47      48      49      50
      51      52      53      54      55      56      57      58      59      60
      61      62      63      64      65      66      67      68      69      70
      71      72      73      74      75      76      77      78      79      80
      81      82      83      84      85      86      87      88      89      90
      91      92      93      94      95      96      97      98      99     100
     101     102     103     104     105     106     107     108     109     110
     111     112     113     114     115     116     117     118     119     120
     121     122     123     124     125
  AMN calculated

  ---------------
  *** Compute  M 
  ---------------

 Number of local k points =      125
       1       2       3       4       5       6       7       8       9      10
      11      12      13      14      15      16      17      18      19      20
      21      22      23      24      25      26      27      28      29      30
      31      32      33      34      35      36      37      38      39      40
      41      42      43      44      45      46      47      48      49      50
      51      52      53      54      55      56      57      58      59      60
      61      62      63      64      65      66      67      68      69      70
      71      72      73      74      75      76      77      78      79      80
      81      82      83      84      85      86      87      88      89      90
      91      92      93      94      95      96      97      98      99     100
     101     102     103     104     105     106     107     108     109     110
     111     112     113     114     115     116     117     118     119     120
     121     122     123     124     125
  MMN calculated

  -----------------------------------
  *** Orbital terms are not computed 
  -----------------------------------

  -----------------------------------
  *** SHC terms are not computed 
  -----------------------------------

  ----------------
  *** Write bands 
  ----------------


  -----------------------------
  *** Plot info is not printed 
  -----------------------------

  -----------------------------
  *** Parity info is not printed 
  -----------------------------

  ------------
  *** Stop pp 
  ------------


     init_pw2wan  :     10.51s CPU     11.89s WALL (       1 calls)
     compute_amn  :    289.24s CPU    289.91s WALL (       1 calls)
     compute_mmn  :     86.37s CPU     88.67s WALL (       1 calls)

     Internal routines:
     compute_u_kb :     23.94s CPU     24.93s WALL (     750 calls)

     PW2WANNIER   :   6m26.14s CPU   6m30.49s WALL


   This run was terminated on:  20:53:12  19Dec2025            

=------------------------------------------------------------------------------=
   JOB DONE.
=------------------------------------------------------------------------------=

