
     Program PWSCF v.7.5 starts on 29Nov2025 at 20:34:51 
        Git branch: develop
        Last git commit: 70e07caa2a5fab3dd9374bc01196f67e923fc5ea
        Last git commit date: Mon Aug 18 10:06:47 2025 +0000
        Last git commit subject: Merge branch 'stressed-by-optional-variables' into

     This program is part of the open-source Quantum ESPRESSO suite
     for quantum simulation of materials; please cite
         "P. Giannozzi et al., J. Phys.:Condens. Matter 21 395502 (2009);
         "P. Giannozzi et al., J. Phys.:Condens. Matter 29 465901 (2017);
         "P. Giannozzi et al., J. Chem. Phys. 152 154105 (2020);
          URL http://www.quantum-espresso.org", 
     in publications or presentations arising from this work. More details at
     http://www.quantum-espresso.org/quote

     Parallel version (MPI), running on   128 processors

     MPI processes distributed on     1 nodes
     931984 MiB available memory on the printing compute node when the environment starts

     Waiting for input...
     Reading input from standard input
Warning: card &CELL ignored
Warning: card &FCP ignored
Warning: card &RISM ignored

     Current dimensions of program PWSCF are:
     Max number of different atomic species (ntypx) = 10
     Max number of k-points (npk) =  40000
     Max angular momentum in pseudopotentials (lmaxx) =  4
     file Sr.pz-spn-kjpaw_psl.1.0.0.UPF: wavefunction(s)  4P renormalized
     file Mo.pz-spn-kjpaw_psl.1.0.0.UPF: wavefunction(s)  4S 4D renormalized
     file O.pz-n-kjpaw_psl.1.0.0.UPF: wavefunction(s)  2S 2P renormalized
     Found identity + ( -0.5000  0.5000 -0.5000) symmetry
     This is a supercell, fractional translations are disabled
     Message from routine setup:
     using ibrav=0 with symmetry is DISCOURAGED, use correct ibrav instead

     K-points division:     npool     =     128
     Subspace diagonalization in iterative solution of the eigenvalue problem:
     a serial algorithm will be used

     Message from routine divide_et_impera:
     suboptimal parallelization: some nodes have no k-points

     G-vector sticks info
     --------------------
     sticks:   dense  smooth     PW     G-vecs:    dense   smooth      PW
     Sum        3577    1789    497               228191    80831   11835

     Using Slab Decomposition



     bravais-lattice index     =            0
     lattice parameter (alat)  =      10.6088  a.u.
     unit-cell volume          =    1688.5722 (a.u.)^3
     number of atoms/cell      =           20
     number of atomic types    =            3
     number of electrons       =       168.00
     number of Kohn-Sham states=          101
     kinetic-energy cutoff     =      50.0000  Ry
     charge density cutoff     =     400.0000  Ry
     scf convergence threshold =      1.0E-09
     mixing beta               =       0.4000
     number of iterations used =            8  plain     mixing
     Exchange-correlation= SLA  PZ   NOGX NOGC
                           (   1   1   0   0   0   0   0)

     celldm(1)=  10.608847  celldm(2)=   0.000000  celldm(3)=   0.000000
     celldm(4)=   0.000000  celldm(5)=   0.000000  celldm(6)=   0.000000

     crystal axes: (cart. coord. in units of alat)
               a(1) = (   1.000000   0.000000   0.000000 )  
               a(2) = (   0.000000   1.000000   0.000000 )  
               a(3) = (   0.000000   0.000000   1.414214 )  

     reciprocal axes: (cart. coord. in units 2 pi/alat)
               b(1) = (  1.000000  0.000000  0.000000 )  
               b(2) = (  0.000000  1.000000  0.000000 )  
               b(3) = (  0.000000  0.000000  0.707107 )  


     PseudoPot. # 1 for Sr read from file:
     ../../../pseudo/Sr.pz-spn-kjpaw_psl.1.0.0.UPF
     MD5 check sum: 14b1f655f5497b386c4f305353cf4fd4
     Pseudo is Projector augmented-wave + core cor, Zval = 10.0
     Generated using 'atomic' code by A. Dal Corso  v.7.3
     Shape of augmentation charge: PSQ
     Using radial grid of 1221 points,  6 beta functions with: 
                l(1) =   0
                l(2) =   0
                l(3) =   1
                l(4) =   1
                l(5) =   2
                l(6) =   2
     Q(r) pseudized with 0 coefficients 


     PseudoPot. # 2 for Mo read from file:
     ../../../pseudo/Mo.pz-spn-kjpaw_psl.1.0.0.UPF
     MD5 check sum: 2e12aff744a4785a34e7548d4bec1d21
     Pseudo is Projector augmented-wave + core cor, Zval = 14.0
     Generated using 'atomic' code by A. Dal Corso  v.7.3
     Shape of augmentation charge: PSQ
     Using radial grid of 1229 points,  6 beta functions with: 
                l(1) =   0
                l(2) =   0
                l(3) =   1
                l(4) =   1
                l(5) =   2
                l(6) =   2
     Q(r) pseudized with 0 coefficients 


     PseudoPot. # 3 for O  read from file:
     ../../../pseudo/O.pz-n-kjpaw_psl.1.0.0.UPF
     MD5 check sum: 71a951e35f67dc87891058fc5642ed8f
     Pseudo is Projector augmented-wave + core cor, Zval =  6.0
     Generated using 'atomic' code by A. Dal Corso  v.7.3
     Shape of augmentation charge: PSQ
     Using radial grid of 1095 points,  4 beta functions with: 
                l(1) =   0
                l(2) =   0
                l(3) =   1
                l(4) =   1
     Q(r) pseudized with 0 coefficients 


     atomic species   valence    mass     pseudopotential
     Sr               10.00    87.62000     Sr( 1.00)
     Mo               14.00    95.95000     Mo( 1.00)
     O                 6.00    15.99900     O ( 1.00)

      4 Sym. Ops., with inversion, found


                                    s                        frac. trans.

      isym =  1     identity                                     

 cryst.   s( 1) = (     1          0          0      )
                  (     0          1          0      )
                  (     0          0          1      )

 cart.    s( 1) = (  1.0000000  0.0000000  0.0000000 )
                  (  0.0000000  1.0000000  0.0000000 )
                  (  0.0000000  0.0000000  1.0000000 )


      isym =  2     180 deg rotation - cart. axis [1,0,0]        

 cryst.   s( 2) = (     1          0          0      )
                  (     0         -1          0      )
                  (     0          0         -1      )

 cart.    s( 2) = (  1.0000000  0.0000000  0.0000000 )
                  (  0.0000000 -1.0000000  0.0000000 )
                  (  0.0000000  0.0000000 -1.0000000 )


      isym =  3     inversion                                    

 cryst.   s( 3) = (    -1          0          0      )
                  (     0         -1          0      )
                  (     0          0         -1      )

 cart.    s( 3) = ( -1.0000000  0.0000000  0.0000000 )
                  (  0.0000000 -1.0000000  0.0000000 )
                  (  0.0000000  0.0000000 -1.0000000 )


      isym =  4     inv. 180 deg rotation - cart. axis [1,0,0]   

 cryst.   s( 4) = (    -1          0          0      )
                  (     0          1          0      )
                  (     0          0          1      )

 cart.    s( 4) = ( -1.0000000  0.0000000  0.0000000 )
                  (  0.0000000  1.0000000  0.0000000 )
                  (  0.0000000  0.0000000  1.0000000 )


   Cartesian axes

     site n.     atom                  positions (alat units)
         1        Sr     tau(   1) = (   0.0000000   0.5000000   0.3535535  )
         2        Sr     tau(   2) = (   0.0000000   0.5000000   1.0606604  )
         3        Sr     tau(   3) = (   0.5000000   0.0000000   1.0606604  )
         4        Sr     tau(   4) = (   0.5000000   0.0000000   0.3535535  )
         5        Mo     tau(   5) = (   0.0000000   0.0000000   0.0000000  )
         6        Mo     tau(   6) = (   0.0000000   0.0000000   0.7071069  )
         7        Mo     tau(   7) = (   0.5000000   0.5000000   0.7071069  )
         8        Mo     tau(   8) = (   0.5000000   0.5000000   0.0000000  )
         9        O      tau(   9) = (   0.2500000   0.7500000   0.0062975  )
        10        O      tau(  10) = (   0.2500000   0.2500000  -0.0062975  )
        11        O      tau(  11) = (   0.7500000   0.2500000   0.7134044  )
        12        O      tau(  12) = (   0.7500000   0.7500000   0.7008094  )
        13        O      tau(  13) = (   0.7500000   0.2500000  -0.0062975  )
        14        O      tau(  14) = (   0.7500000   0.7500000   0.0062975  )
        15        O      tau(  15) = (   0.2500000   0.7500000   0.7008094  )
        16        O      tau(  16) = (   0.2500000   0.2500000   0.7134044  )
        17        O      tau(  17) = (   0.0000000   0.0089060   0.3535535  )
        18        O      tau(  18) = (   0.0000000  -0.0089060   1.0606604  )
        19        O      tau(  19) = (   0.5000000   0.5089060   1.0606604  )
        20        O      tau(  20) = (   0.5000000   0.4910940   0.3535535  )

   Crystallographic axes

     site n.     atom                  positions (cryst. coord.)
         1        Sr     tau(   1) = (  0.0000000  0.5000000  0.2500000  )
         2        Sr     tau(   2) = (  0.0000000  0.5000000  0.7500000  )
         3        Sr     tau(   3) = (  0.5000000  0.0000000  0.7500000  )
         4        Sr     tau(   4) = (  0.5000000  0.0000000  0.2500000  )
         5        Mo     tau(   5) = (  0.0000000  0.0000000  0.0000000  )
         6        Mo     tau(   6) = (  0.0000000  0.0000000  0.5000000  )
         7        Mo     tau(   7) = (  0.5000000  0.5000000  0.5000000  )
         8        Mo     tau(   8) = (  0.5000000  0.5000000  0.0000000  )
         9        O      tau(   9) = (  0.2500000  0.7500000  0.0044530  )
        10        O      tau(  10) = (  0.2500000  0.2500000 -0.0044530  )
        11        O      tau(  11) = (  0.7500000  0.2500000  0.5044530  )
        12        O      tau(  12) = (  0.7500000  0.7500000  0.4955470  )
        13        O      tau(  13) = (  0.7500000  0.2500000 -0.0044530  )
        14        O      tau(  14) = (  0.7500000  0.7500000  0.0044530  )
        15        O      tau(  15) = (  0.2500000  0.7500000  0.4955470  )
        16        O      tau(  16) = (  0.2500000  0.2500000  0.5044530  )
        17        O      tau(  17) = (  0.0000000  0.0089060  0.2500000  )
        18        O      tau(  18) = (  0.0000000 -0.0089060  0.7500000  )
        19        O      tau(  19) = (  0.5000000  0.5089060  0.7500000  )
        20        O      tau(  20) = (  0.5000000  0.4910940  0.2500000  )

     number of k points=    39  Fermi-Dirac smearing, width (Ry)=  0.0015
                       cart. coord. in units 2pi/alat
        k(    1) = (   0.0000000   0.0000000   0.0000000), wk =   0.0160000
        k(    2) = (   0.0000000   0.0000000   0.1414213), wk =   0.0320000
        k(    3) = (   0.0000000   0.0000000   0.2828427), wk =   0.0320000
        k(    4) = (   0.0000000   0.2000000   0.0000000), wk =   0.0320000
        k(    5) = (   0.0000000   0.2000000   0.1414213), wk =   0.0320000
        k(    6) = (   0.0000000   0.2000000   0.2828427), wk =   0.0320000
        k(    7) = (   0.0000000   0.4000000   0.0000000), wk =   0.0320000
        k(    8) = (   0.0000000   0.4000000   0.1414213), wk =   0.0320000
        k(    9) = (   0.0000000   0.4000000   0.2828427), wk =   0.0320000
        k(   10) = (   0.2000000   0.2000000   0.0000000), wk =   0.0640000
        k(   11) = (   0.2000000   0.2000000   0.1414213), wk =   0.0640000
        k(   12) = (   0.2000000   0.2000000   0.2828427), wk =   0.0640000
        k(   13) = (   0.2000000   0.4000000   0.0000000), wk =   0.0640000
        k(   14) = (   0.2000000   0.4000000   0.1414213), wk =   0.0640000
        k(   15) = (   0.2000000   0.4000000   0.2828427), wk =   0.0640000
        k(   16) = (   0.4000000   0.4000000   0.0000000), wk =   0.0640000
        k(   17) = (   0.4000000   0.4000000   0.1414213), wk =   0.0640000
        k(   18) = (   0.4000000   0.4000000   0.2828427), wk =   0.0640000
        k(   19) = (   0.2000000   0.0000000   0.0000000), wk =   0.0320000
        k(   20) = (   0.2000000   0.0000000  -0.1414213), wk =   0.0640000
        k(   21) = (   0.0000000   0.2000000  -0.1414213), wk =   0.0320000
        k(   22) = (   0.2000000   0.0000000  -0.2828427), wk =   0.0640000
        k(   23) = (   0.0000000   0.2000000  -0.2828427), wk =   0.0320000
        k(   24) = (   0.4000000   0.0000000   0.0000000), wk =   0.0320000
        k(   25) = (   0.4000000   0.0000000  -0.1414213), wk =   0.0640000
        k(   26) = (   0.0000000   0.4000000  -0.1414213), wk =   0.0320000
        k(   27) = (   0.4000000   0.0000000  -0.2828427), wk =   0.0640000
        k(   28) = (   0.0000000   0.4000000  -0.2828427), wk =   0.0320000
        k(   29) = (   0.2000000   0.2000000  -0.1414213), wk =   0.0640000
        k(   30) = (   0.2000000   0.2000000  -0.2828427), wk =   0.0640000
        k(   31) = (   0.4000000   0.2000000   0.0000000), wk =   0.0640000
        k(   32) = (   0.4000000   0.2000000  -0.1414213), wk =   0.0640000
        k(   33) = (  -0.4000000  -0.2000000  -0.1414213), wk =   0.0640000
        k(   34) = (  -0.2000000   0.4000000  -0.1414213), wk =   0.0640000
        k(   35) = (   0.4000000   0.2000000  -0.2828427), wk =   0.0640000
        k(   36) = (  -0.4000000  -0.2000000  -0.2828427), wk =   0.0640000
        k(   37) = (  -0.2000000   0.4000000  -0.2828427), wk =   0.0640000
        k(   38) = (   0.4000000   0.4000000  -0.1414213), wk =   0.0640000
        k(   39) = (   0.4000000   0.4000000  -0.2828427), wk =   0.0640000

                       cryst. coord.
        k(    1) = (   0.0000000   0.0000000   0.0000000), wk =   0.0160000
        k(    2) = (   0.0000000   0.0000000   0.2000000), wk =   0.0320000
        k(    3) = (   0.0000000   0.0000000   0.4000000), wk =   0.0320000
        k(    4) = (   0.0000000   0.2000000   0.0000000), wk =   0.0320000
        k(    5) = (   0.0000000   0.2000000   0.2000000), wk =   0.0320000
        k(    6) = (   0.0000000   0.2000000   0.4000000), wk =   0.0320000
        k(    7) = (   0.0000000   0.4000000   0.0000000), wk =   0.0320000
        k(    8) = (   0.0000000   0.4000000   0.2000000), wk =   0.0320000
        k(    9) = (   0.0000000   0.4000000   0.4000000), wk =   0.0320000
        k(   10) = (   0.2000000   0.2000000   0.0000000), wk =   0.0640000
        k(   11) = (   0.2000000   0.2000000   0.2000000), wk =   0.0640000
        k(   12) = (   0.2000000   0.2000000   0.4000000), wk =   0.0640000
        k(   13) = (   0.2000000   0.4000000   0.0000000), wk =   0.0640000
        k(   14) = (   0.2000000   0.4000000   0.2000000), wk =   0.0640000
        k(   15) = (   0.2000000   0.4000000   0.4000000), wk =   0.0640000
        k(   16) = (   0.4000000   0.4000000   0.0000000), wk =   0.0640000
        k(   17) = (   0.4000000   0.4000000   0.2000000), wk =   0.0640000
        k(   18) = (   0.4000000   0.4000000   0.4000000), wk =   0.0640000
        k(   19) = (   0.2000000   0.0000000   0.0000000), wk =   0.0320000
        k(   20) = (   0.2000000   0.0000000  -0.2000000), wk =   0.0640000
        k(   21) = (   0.0000000   0.2000000  -0.2000000), wk =   0.0320000
        k(   22) = (   0.2000000   0.0000000  -0.4000000), wk =   0.0640000
        k(   23) = (   0.0000000   0.2000000  -0.4000000), wk =   0.0320000
        k(   24) = (   0.4000000   0.0000000   0.0000000), wk =   0.0320000
        k(   25) = (   0.4000000   0.0000000  -0.2000000), wk =   0.0640000
        k(   26) = (   0.0000000   0.4000000  -0.2000000), wk =   0.0320000
        k(   27) = (   0.4000000   0.0000000  -0.4000000), wk =   0.0640000
        k(   28) = (   0.0000000   0.4000000  -0.4000000), wk =   0.0320000
        k(   29) = (   0.2000000   0.2000000  -0.2000000), wk =   0.0640000
        k(   30) = (   0.2000000   0.2000000  -0.4000000), wk =   0.0640000
        k(   31) = (   0.4000000   0.2000000   0.0000000), wk =   0.0640000
        k(   32) = (   0.4000000   0.2000000  -0.2000000), wk =   0.0640000
        k(   33) = (  -0.4000000  -0.2000000  -0.2000000), wk =   0.0640000
        k(   34) = (  -0.2000000   0.4000000  -0.2000000), wk =   0.0640000
        k(   35) = (   0.4000000   0.2000000  -0.4000000), wk =   0.0640000
        k(   36) = (  -0.4000000  -0.2000000  -0.4000000), wk =   0.0640000
        k(   37) = (  -0.2000000   0.4000000  -0.4000000), wk =   0.0640000
        k(   38) = (   0.4000000   0.4000000  -0.2000000), wk =   0.0640000
        k(   39) = (   0.4000000   0.4000000  -0.4000000), wk =   0.0640000

     Dense  grid:   228191 G-vectors     FFT dimensions: (  72,  72,  96)

     Smooth grid:    80831 G-vectors     FFT dimensions: (  48,  48,  72)

     Dynamical RAM for                 wfc:      15.54 MB

     Dynamical RAM for     wfc (w. buffer):      15.54 MB

     Dynamical RAM for           str. fact:      10.45 MB

     Dynamical RAM for           local pot:       0.00 MB

     Dynamical RAM for          nlocal pot:      36.92 MB

     Dynamical RAM for                qrad:       4.82 MB

     Dynamical RAM for          rho,v,vnew:      21.84 MB

     Dynamical RAM for               rhoin:       7.28 MB

     Dynamical RAM for            rho*nmix:      55.71 MB

     Dynamical RAM for           G-vectors:      13.67 MB

     Dynamical RAM for          h,s,v(r/c):       1.87 MB

     Dynamical RAM for          <psi|beta>:       0.37 MB

     Dynamical RAM for                 psi:      31.07 MB

     Dynamical RAM for                hpsi:      31.07 MB

     Dynamical RAM for                spsi:      31.07 MB

     Dynamical RAM for      wfcinit/wfcrot:      31.31 MB

     Dynamical RAM for           addusdens:       8.84 MB

     Estimated static dynamical RAM per process >     143.42 MB

     Estimated max dynamical RAM per process >     294.58 MB

     Estimated total dynamical RAM >      29.91 GB

     Check: negative core charge=   -0.000002

     Initial potential from superposition of free atoms

     starting charge     167.9716, renormalised to     168.0000
     Starting wfcs are  120 randomized atomic wfcs
     Checking if some PAW data can be deallocated... 
       PAW data deallocated on  100 nodes for type:  1
       PAW data deallocated on  100 nodes for type:  2
       PAW data deallocated on   56 nodes for type:  3

     total cpu time spent up to now is        4.3 secs

     per-process dynamical memory:   215.5 Mb

     Self-consistent Calculation

     iteration #  1     ecut=    50.00 Ry     beta= 0.40
     Davidson diagonalization with overlap

---- Real-time Memory Report at c_bands before calling an iterative solver
           263 MiB given to the printing process from OS
           217 MiB allocation reported by mallinfo(arena+hblkhd)
        918234 MiB available memory on the node where the printing process lives
------------------
     ethr =  1.00E-02,  avg # of iterations =  2.2

     total cpu time spent up to now is        7.0 secs

     total energy              =   -2921.42566450 Ry
     estimated scf accuracy    <       5.73266758 Ry

     iteration #  2     ecut=    50.00 Ry     beta= 0.40
     Davidson diagonalization with overlap

---- Real-time Memory Report at c_bands before calling an iterative solver
           330 MiB given to the printing process from OS
           250 MiB allocation reported by mallinfo(arena+hblkhd)
        916718 MiB available memory on the node where the printing process lives
------------------
     ethr =  3.41E-03,  avg # of iterations =  4.1

     total cpu time spent up to now is       10.1 secs

     total energy              =   -2923.44339001 Ry
     estimated scf accuracy    <       1.56650754 Ry

     iteration #  3     ecut=    50.00 Ry     beta= 0.40
     Davidson diagonalization with overlap

---- Real-time Memory Report at c_bands before calling an iterative solver
           353 MiB given to the printing process from OS
           273 MiB allocation reported by mallinfo(arena+hblkhd)
        913954 MiB available memory on the node where the printing process lives
------------------
     ethr =  9.32E-04,  avg # of iterations =  6.0

     total cpu time spent up to now is       13.6 secs

     total energy              =   -2923.70482952 Ry
     estimated scf accuracy    <       0.62960946 Ry

     iteration #  4     ecut=    50.00 Ry     beta= 0.40
     Davidson diagonalization with overlap

---- Real-time Memory Report at c_bands before calling an iterative solver
           358 MiB given to the printing process from OS
           278 MiB allocation reported by mallinfo(arena+hblkhd)
        914239 MiB available memory on the node where the printing process lives
------------------
     ethr =  3.75E-04,  avg # of iterations = 11.6

     total cpu time spent up to now is       17.5 secs

     total energy              =   -2923.76209396 Ry
     estimated scf accuracy    <       1.22056829 Ry

     iteration #  5     ecut=    50.00 Ry     beta= 0.40
     Davidson diagonalization with overlap

---- Real-time Memory Report at c_bands before calling an iterative solver
           361 MiB given to the printing process from OS
           281 MiB allocation reported by mallinfo(arena+hblkhd)
        914514 MiB available memory on the node where the printing process lives
------------------
     ethr =  3.75E-04,  avg # of iterations =  1.9

     total cpu time spent up to now is       20.4 secs

     total energy              =   -2923.81240653 Ry
     estimated scf accuracy    <       0.06567435 Ry

     iteration #  6     ecut=    50.00 Ry     beta= 0.40
     Davidson diagonalization with overlap

---- Real-time Memory Report at c_bands before calling an iterative solver
           363 MiB given to the printing process from OS
           283 MiB allocation reported by mallinfo(arena+hblkhd)
        914717 MiB available memory on the node where the printing process lives
------------------
     ethr =  3.91E-05,  avg # of iterations = 14.2

     total cpu time spent up to now is       25.0 secs

     total energy              =   -2923.81364923 Ry
     estimated scf accuracy    <       0.24794321 Ry

     iteration #  7     ecut=    50.00 Ry     beta= 0.40
     Davidson diagonalization with overlap

---- Real-time Memory Report at c_bands before calling an iterative solver
           366 MiB given to the printing process from OS
           286 MiB allocation reported by mallinfo(arena+hblkhd)
        914937 MiB available memory on the node where the printing process lives
------------------
     ethr =  3.91E-05,  avg # of iterations =  2.5

     total cpu time spent up to now is       27.9 secs

     total energy              =   -2923.82579905 Ry
     estimated scf accuracy    <       0.08289511 Ry

     iteration #  8     ecut=    50.00 Ry     beta= 0.40
     Davidson diagonalization with overlap

---- Real-time Memory Report at c_bands before calling an iterative solver
           370 MiB given to the printing process from OS
           290 MiB allocation reported by mallinfo(arena+hblkhd)
        915143 MiB available memory on the node where the printing process lives
------------------
     ethr =  3.91E-05,  avg # of iterations =  1.0

     total cpu time spent up to now is       30.1 secs

     total energy              =   -2923.82586373 Ry
     estimated scf accuracy    <       0.04403024 Ry

     iteration #  9     ecut=    50.00 Ry     beta= 0.40
     Davidson diagonalization with overlap

---- Real-time Memory Report at c_bands before calling an iterative solver
           372 MiB given to the printing process from OS
           292 MiB allocation reported by mallinfo(arena+hblkhd)
        915311 MiB available memory on the node where the printing process lives
------------------
     ethr =  2.62E-05,  avg # of iterations =  2.0

     total cpu time spent up to now is       32.8 secs

     total energy              =   -2923.82738264 Ry
     estimated scf accuracy    <       0.00646898 Ry

     iteration # 10     ecut=    50.00 Ry     beta= 0.40
     Davidson diagonalization with overlap

---- Real-time Memory Report at c_bands before calling an iterative solver
           375 MiB given to the printing process from OS
           295 MiB allocation reported by mallinfo(arena+hblkhd)
        915511 MiB available memory on the node where the printing process lives
------------------
     ethr =  3.85E-06,  avg # of iterations = 13.2

     total cpu time spent up to now is       36.6 secs

     total energy              =   -2923.82695272 Ry
     estimated scf accuracy    <       0.00119529 Ry

     iteration # 11     ecut=    50.00 Ry     beta= 0.40
     Davidson diagonalization with overlap

---- Real-time Memory Report at c_bands before calling an iterative solver
           377 MiB given to the printing process from OS
           297 MiB allocation reported by mallinfo(arena+hblkhd)
        915772 MiB available memory on the node where the printing process lives
------------------
     ethr =  7.11E-07,  avg # of iterations =  9.2

     total cpu time spent up to now is       41.4 secs

     total energy              =   -2923.82743423 Ry
     estimated scf accuracy    <       0.00070772 Ry

     iteration # 12     ecut=    50.00 Ry     beta= 0.40
     Davidson diagonalization with overlap

---- Real-time Memory Report at c_bands before calling an iterative solver
           377 MiB given to the printing process from OS
           297 MiB allocation reported by mallinfo(arena+hblkhd)
        916069 MiB available memory on the node where the printing process lives
------------------
     ethr =  4.21E-07,  avg # of iterations =  2.3

     total cpu time spent up to now is       44.4 secs

     total energy              =   -2923.82746574 Ry
     estimated scf accuracy    <       0.00035623 Ry

     iteration # 13     ecut=    50.00 Ry     beta= 0.40
     Davidson diagonalization with overlap

---- Real-time Memory Report at c_bands before calling an iterative solver
           377 MiB given to the printing process from OS
           297 MiB allocation reported by mallinfo(arena+hblkhd)
        916270 MiB available memory on the node where the printing process lives
------------------
     ethr =  2.12E-07,  avg # of iterations =  4.0

     total cpu time spent up to now is       47.4 secs

     total energy              =   -2923.82752691 Ry
     estimated scf accuracy    <       0.00003319 Ry

     iteration # 14     ecut=    50.00 Ry     beta= 0.40
     Davidson diagonalization with overlap

---- Real-time Memory Report at c_bands before calling an iterative solver
           378 MiB given to the printing process from OS
           297 MiB allocation reported by mallinfo(arena+hblkhd)
        916447 MiB available memory on the node where the printing process lives
------------------
     ethr =  1.98E-08,  avg # of iterations =  5.5

     total cpu time spent up to now is       50.8 secs

     total energy              =   -2923.82752828 Ry
     estimated scf accuracy    <       0.00001810 Ry

     iteration # 15     ecut=    50.00 Ry     beta= 0.40
     Davidson diagonalization with overlap

---- Real-time Memory Report at c_bands before calling an iterative solver
           378 MiB given to the printing process from OS
           297 MiB allocation reported by mallinfo(arena+hblkhd)
        916639 MiB available memory on the node where the printing process lives
------------------
     ethr =  1.08E-08,  avg # of iterations =  4.0

     total cpu time spent up to now is       54.0 secs

     total energy              =   -2923.82753270 Ry
     estimated scf accuracy    <       0.00000009 Ry

     iteration # 16     ecut=    50.00 Ry     beta= 0.40
     Davidson diagonalization with overlap

---- Real-time Memory Report at c_bands before calling an iterative solver
           378 MiB given to the printing process from OS
           297 MiB allocation reported by mallinfo(arena+hblkhd)
        916821 MiB available memory on the node where the printing process lives
------------------
     ethr =  5.49E-11,  avg # of iterations =  9.7

     total cpu time spent up to now is       60.0 secs

     total energy              =   -2923.82753356 Ry
     estimated scf accuracy    <       0.00000204 Ry

     iteration # 17     ecut=    50.00 Ry     beta= 0.40
     Davidson diagonalization with overlap

---- Real-time Memory Report at c_bands before calling an iterative solver
           378 MiB given to the printing process from OS
           297 MiB allocation reported by mallinfo(arena+hblkhd)
        917155 MiB available memory on the node where the printing process lives
------------------
     ethr =  5.49E-11,  avg # of iterations =  4.9

     total cpu time spent up to now is       63.9 secs

     total energy              =   -2923.82753359 Ry
     estimated scf accuracy    <       0.00000108 Ry

     iteration # 18     ecut=    50.00 Ry     beta= 0.40
     Davidson diagonalization with overlap

---- Real-time Memory Report at c_bands before calling an iterative solver
           378 MiB given to the printing process from OS
           297 MiB allocation reported by mallinfo(arena+hblkhd)
        917319 MiB available memory on the node where the printing process lives
------------------
     ethr =  5.49E-11,  avg # of iterations =  2.0

     total cpu time spent up to now is       66.6 secs

     total energy              =   -2923.82753330 Ry
     estimated scf accuracy    <       0.00000111 Ry

     iteration # 19     ecut=    50.00 Ry     beta= 0.40
     Davidson diagonalization with overlap

---- Real-time Memory Report at c_bands before calling an iterative solver
           378 MiB given to the printing process from OS
           297 MiB allocation reported by mallinfo(arena+hblkhd)
        917478 MiB available memory on the node where the printing process lives
------------------
     ethr =  5.49E-11,  avg # of iterations =  5.0

     total cpu time spent up to now is       70.4 secs

     total energy              =   -2923.82753326 Ry
     estimated scf accuracy    <       0.00000023 Ry

     iteration # 20     ecut=    50.00 Ry     beta= 0.40
     Davidson diagonalization with overlap

---- Real-time Memory Report at c_bands before calling an iterative solver
           378 MiB given to the printing process from OS
           297 MiB allocation reported by mallinfo(arena+hblkhd)
        917651 MiB available memory on the node where the printing process lives
------------------
     ethr =  5.49E-11,  avg # of iterations =  4.6

     total cpu time spent up to now is       74.0 secs

     total energy              =   -2923.82753331 Ry
     estimated scf accuracy    <          5.7E-09 Ry

     iteration # 21     ecut=    50.00 Ry     beta= 0.40
     Davidson diagonalization with overlap

---- Real-time Memory Report at c_bands before calling an iterative solver
           378 MiB given to the printing process from OS
           297 MiB allocation reported by mallinfo(arena+hblkhd)
        917808 MiB available memory on the node where the printing process lives
------------------
     ethr =  3.42E-12,  avg # of iterations =  5.1

     total cpu time spent up to now is       77.6 secs

     total energy              =   -2923.82753331 Ry
     estimated scf accuracy    <       0.00000005 Ry

     iteration # 22     ecut=    50.00 Ry     beta= 0.40
     Davidson diagonalization with overlap

---- Real-time Memory Report at c_bands before calling an iterative solver
           378 MiB given to the printing process from OS
           297 MiB allocation reported by mallinfo(arena+hblkhd)
        917953 MiB available memory on the node where the printing process lives
------------------
     ethr =  3.42E-12,  avg # of iterations =  2.0

     total cpu time spent up to now is       80.3 secs

     total energy              =   -2923.82753331 Ry
     estimated scf accuracy    <          6.6E-09 Ry

     iteration # 23     ecut=    50.00 Ry     beta= 0.40
     Davidson diagonalization with overlap

---- Real-time Memory Report at c_bands before calling an iterative solver
           378 MiB given to the printing process from OS
           297 MiB allocation reported by mallinfo(arena+hblkhd)
        918044 MiB available memory on the node where the printing process lives
------------------
     ethr =  3.42E-12,  avg # of iterations =  2.0

     total cpu time spent up to now is       82.9 secs

     total energy              =   -2923.82753331 Ry
     estimated scf accuracy    <       0.00000002 Ry

     iteration # 24     ecut=    50.00 Ry     beta= 0.40
     Davidson diagonalization with overlap

---- Real-time Memory Report at c_bands before calling an iterative solver
           378 MiB given to the printing process from OS
           297 MiB allocation reported by mallinfo(arena+hblkhd)
        918134 MiB available memory on the node where the printing process lives
------------------
     ethr =  3.42E-12,  avg # of iterations =  1.0

     total cpu time spent up to now is       85.1 secs

     End of self-consistent calculation

          k = 0.0000 0.0000 0.0000 ( 10085 PWs)   bands (ev):

   -48.9177 -48.9169 -48.9148 -48.9138 -23.2542 -23.2355 -23.2310 -23.2305
   -23.2270 -23.2264 -23.1615 -23.1548 -23.1529 -23.1523 -23.1495 -23.1491
   -22.1353 -22.1031 -22.0998 -22.0843  -6.9693  -6.7311  -6.2632  -6.0452
    -6.0411  -6.0037  -5.7564  -5.7526  -5.3085  -5.2798  -5.2786  -5.2747
    -4.4066  -4.4058  -4.4013  -4.1574  -4.1539  -4.1524  -4.1209  -4.1192
    -4.0660  -3.7605  -3.7568  -3.6517   5.1621   5.1767   5.1790   5.2751
     5.3671   5.4125   5.6036   6.2352   6.2353   6.2392   7.1759   7.1763
     7.6228   7.6231   7.7472   7.7491   7.7882   7.7911   7.7921   7.8473
     8.3534   8.7322   8.7394   8.7499   9.1152   9.1160   9.1193   9.4793
     9.4806   9.7654   9.7673   9.7690  10.1975  10.2628  10.2661  10.2721
    11.6628  11.6666  11.6716  11.8732  14.3618  14.3742  14.3947  14.4030
    15.1701  15.3559  15.4081  15.4719  15.5043  15.5388  15.5812  15.6630
    15.6703  15.8918  16.6376  17.0743  17.4848

     occupation numbers 
     1.0000   1.0000   1.0000   1.0000   1.0000   1.0000   1.0000   1.0000
     1.0000   1.0000   1.0000   1.0000   1.0000   1.0000   1.0000   1.0000
     1.0000   1.0000   1.0000   1.0000   1.0000   1.0000   1.0000   1.0000
     1.0000   1.0000   1.0000   1.0000   1.0000   1.0000   1.0000   1.0000
     1.0000   1.0000   1.0000   1.0000   1.0000   1.0000   1.0000   1.0000
     1.0000   1.0000   1.0000   1.0000   1.0000   1.0000   1.0000   1.0000
     1.0000   1.0000   1.0000   1.0000   1.0000   1.0000   1.0000   1.0000
     1.0000   1.0000   1.0000   1.0000   1.0000   1.0000   1.0000   1.0000
     1.0000   1.0000   1.0000   1.0000   1.0000   1.0000   1.0000   1.0000
     1.0000   1.0000   1.0000   1.0000   1.0000   1.0000   1.0000   1.0000
     1.0000   1.0000   1.0000   1.0000   0.0000   0.0000   0.0000   0.0000
     0.0000   0.0000   0.0000   0.0000   0.0000   0.0000   0.0000   0.0000
     0.0000   0.0000   0.0000   0.0000   0.0000

          k = 0.0000 0.0000 0.1414 ( 10050 PWs)   bands (ev):

   -48.9176 -48.9166 -48.9149 -48.9136 -23.2455 -23.2307 -23.2301 -23.2278
   -23.2273 -23.2267 -23.1707 -23.1627 -23.1526 -23.1520 -23.1497 -23.1492
   -22.1321 -22.1060 -22.0983 -22.0857  -6.9373  -6.7299  -6.1796  -6.0377
    -6.0179  -6.0075  -5.7258  -5.7202  -5.4051  -5.3863  -5.3487  -5.3457
    -4.3757  -4.3189  -4.3149  -4.1539  -4.1508  -4.1244  -4.1226  -4.1003
    -4.0962  -3.8089  -3.8053  -3.6930   5.1637   5.1774   5.3038   5.3719
     5.4912   5.5278   5.7469   6.1597   6.2933   6.2934   7.0208   7.0214
     7.5873   7.6190   7.6204   7.7707   7.7715   7.8616   7.8630   7.9461
     8.3388   8.4192   8.9335   8.9364   8.9433   8.9477   9.0318   9.4071
     9.4932   9.4950   9.6955   9.6974  10.1488  10.1512  10.2048  10.2662
    11.6895  11.8526  12.0003  12.0034  14.1288  14.1374  14.4649  14.4734
    15.1992  15.2806  15.2895  15.4441  15.5033  15.5073  15.8051  15.8399
    15.8918  16.1608  17.0098  17.1359  17.2701

     occupation numbers 
     1.0000   1.0000   1.0000   1.0000   1.0000   1.0000   1.0000   1.0000
     1.0000   1.0000   1.0000   1.0000   1.0000   1.0000   1.0000   1.0000
     1.0000   1.0000   1.0000   1.0000   1.0000   1.0000   1.0000   1.0000
     1.0000   1.0000   1.0000   1.0000   1.0000   1.0000   1.0000   1.0000
     1.0000   1.0000   1.0000   1.0000   1.0000   1.0000   1.0000   1.0000
     1.0000   1.0000   1.0000   1.0000   1.0000   1.0000   1.0000   1.0000
     1.0000   1.0000   1.0000   1.0000   1.0000   1.0000   1.0000   1.0000
     1.0000   1.0000   1.0000   1.0000   1.0000   1.0000   1.0000   1.0000
     1.0000   1.0000   1.0000   1.0000   1.0000   1.0000   1.0000   1.0000
     1.0000   1.0000   1.0000   1.0000   1.0000   1.0000   1.0000   1.0000
     1.0000   1.0000   1.0000   1.0000   0.0000   0.0000   0.0000   0.0000
     0.0000   0.0000   0.0000   0.0000   0.0000   0.0000   0.0000   0.0000
     0.0000   0.0000   0.0000   0.0000   0.0000

          k = 0.0000 0.0000 0.2828 ( 10046 PWs)   bands (ev):

   -48.9174 -48.9168 -48.9146 -48.9138 -23.2297 -23.2291 -23.2283 -23.2278
   -23.2227 -23.2077 -23.1942 -23.1829 -23.1517 -23.1511 -23.1505 -23.1500
   -22.1238 -22.1139 -22.0945 -22.0896  -6.8553  -6.7674  -6.0286  -6.0171
    -5.9521  -5.8877  -5.6735  -5.6504  -5.6278  -5.6009  -5.4911  -5.4906
    -4.2932  -4.1882  -4.1449  -4.1423  -4.1335  -4.1324  -4.1315  -4.1288
    -3.9594  -3.9434  -3.9399  -3.8065   5.1679   5.1731   5.3816   5.3822
     5.6973   5.9525   6.1908   6.4028   6.4630   6.4632   6.7258   6.7269
     6.9966   7.3927   7.6564   7.6593   7.7179   7.7182   8.1401   8.1413
     8.2428   8.5321   8.5338   8.5936   8.7499   8.8256   9.3856   9.3881
     9.5351   9.5372   9.6025   9.6048   9.8309   9.8330  10.2241  10.2479
    11.7378  11.8001  12.7311  12.7340  13.5183  13.5227  14.6673  14.6766
    14.9689  14.9792  15.2761  15.3700  15.4995  15.5009  16.2175  16.2847
    16.5235  16.7663  16.8398  17.0859  17.2638

     occupation numbers 
     1.0000   1.0000   1.0000   1.0000   1.0000   1.0000   1.0000   1.0000
     1.0000   1.0000   1.0000   1.0000   1.0000   1.0000   1.0000   1.0000
     1.0000   1.0000   1.0000   1.0000   1.0000   1.0000   1.0000   1.0000
     1.0000   1.0000   1.0000   1.0000   1.0000   1.0000   1.0000   1.0000
     1.0000   1.0000   1.0000   1.0000   1.0000   1.0000   1.0000   1.0000
     1.0000   1.0000   1.0000   1.0000   1.0000   1.0000   1.0000   1.0000
     1.0000   1.0000   1.0000   1.0000   1.0000   1.0000   1.0000   1.0000
     1.0000   1.0000   1.0000   1.0000   1.0000   1.0000   1.0000   1.0000
     1.0000   1.0000   1.0000   1.0000   1.0000   1.0000   1.0000   1.0000
     1.0000   1.0000   1.0000   1.0000   1.0000   1.0000   1.0000   1.0000
     1.0000   1.0000   1.0000   1.0000   0.9957   0.9947   0.0000   0.0000
     0.0000   0.0000   0.0000   0.0000   0.0000   0.0000   0.0000   0.0000
     0.0000   0.0000   0.0000   0.0000   0.0000

          k = 0.0000 0.2000 0.0000 ( 10076 PWs)   bands (ev):

   -48.9175 -48.9161 -48.9156 -48.9139 -23.2514 -23.2364 -23.2258 -23.2232
   -23.2199 -23.2190 -23.1626 -23.1609 -23.1599 -23.1573 -23.1563 -23.1553
   -22.1292 -22.1023 -22.1007 -22.0871  -6.8466  -6.7200  -6.3985  -6.0206
    -6.0100  -5.9413  -5.7760  -5.7032  -5.5293  -5.4014  -5.3962  -5.3529
    -4.3795  -4.2628  -4.2222  -4.1490  -4.1426  -4.1306  -4.0764  -4.0653
    -4.0110  -3.8120  -3.7743  -3.6954   5.2288   5.2703   5.4230   5.4398
     5.5781   5.6906   5.8217   6.1508   6.2886   6.3637   6.8738   7.2368
     7.2510   7.2961   7.4954   7.4995   7.6371   7.6610   7.7459   8.5629
     8.6144   8.6158   8.7256   8.7886   8.8028   8.8525   8.9355   9.1247
     9.2069   9.3075   9.4673   9.5924  10.0519  10.0547  10.1007  10.1970
    11.9645  12.0668  12.2419  12.4170  14.1470  14.2018  14.3819  14.4077
    14.8807  15.1489  15.2301  15.2999  15.6991  15.9854  15.9859  16.1309
    16.1363  16.3431  16.6007  17.3252  17.4063

     occupation numbers 
     1.0000   1.0000   1.0000   1.0000   1.0000   1.0000   1.0000   1.0000
     1.0000   1.0000   1.0000   1.0000   1.0000   1.0000   1.0000   1.0000
     1.0000   1.0000   1.0000   1.0000   1.0000   1.0000   1.0000   1.0000
     1.0000   1.0000   1.0000   1.0000   1.0000   1.0000   1.0000   1.0000
     1.0000   1.0000   1.0000   1.0000   1.0000   1.0000   1.0000   1.0000
     1.0000   1.0000   1.0000   1.0000   1.0000   1.0000   1.0000   1.0000
     1.0000   1.0000   1.0000   1.0000   1.0000   1.0000   1.0000   1.0000
     1.0000   1.0000   1.0000   1.0000   1.0000   1.0000   1.0000   1.0000
     1.0000   1.0000   1.0000   1.0000   1.0000   1.0000   1.0000   1.0000
     1.0000   1.0000   1.0000   1.0000   1.0000   1.0000   1.0000   1.0000
     1.0000   1.0000   1.0000   1.0000   0.0000   0.0000   0.0000   0.0000
     0.0000   0.0000   0.0000   0.0000   0.0000   0.0000   0.0000   0.0000
     0.0000   0.0000   0.0000   0.0000   0.0000

          k = 0.0000 0.2000 0.1414 ( 10060 PWs)   bands (ev):

   -48.9175 -48.9163 -48.9152 -48.9139 -23.2430 -23.2287 -23.2252 -23.2228
   -23.2203 -23.2194 -23.1700 -23.1633 -23.1619 -23.1596 -23.1575 -23.1566
   -22.1265 -22.1048 -22.0994 -22.0884  -6.8194  -6.7016  -6.3220  -6.0072
    -6.0038  -5.9484  -5.7459  -5.6763  -5.6275  -5.4888  -5.4143  -5.4115
    -4.3074  -4.3071  -4.1472  -4.1390  -4.1319  -4.1182  -4.1132  -4.0296
    -4.0252  -3.8556  -3.7963  -3.7272   5.4246   5.4357   5.4381   5.5223
     5.6017   5.7327   5.8590   6.1883   6.3498   6.3526   6.9507   7.0705
     7.1247   7.3008   7.3975   7.5524   7.6173   7.6200   7.6901   8.3525
     8.5099   8.5102   8.5907   8.8726   8.8740   8.9720   8.9786   9.1073
     9.2173   9.2251   9.4330   9.4347  10.0043  10.0077  10.0562  10.1470
    12.1771  12.2918  12.2941  12.3984  14.1570  14.1725  14.2201  14.2706
    14.9064  15.0804  15.1314  15.1373  16.1199  16.1291  16.1332  16.1439
    16.1498  16.5043  17.0149  17.5299  17.5473

     occupation numbers 
     1.0000   1.0000   1.0000   1.0000   1.0000   1.0000   1.0000   1.0000
     1.0000   1.0000   1.0000   1.0000   1.0000   1.0000   1.0000   1.0000
     1.0000   1.0000   1.0000   1.0000   1.0000   1.0000   1.0000   1.0000
     1.0000   1.0000   1.0000   1.0000   1.0000   1.0000   1.0000   1.0000
     1.0000   1.0000   1.0000   1.0000   1.0000   1.0000   1.0000   1.0000
     1.0000   1.0000   1.0000   1.0000   1.0000   1.0000   1.0000   1.0000
     1.0000   1.0000   1.0000   1.0000   1.0000   1.0000   1.0000   1.0000
     1.0000   1.0000   1.0000   1.0000   1.0000   1.0000   1.0000   1.0000
     1.0000   1.0000   1.0000   1.0000   1.0000   1.0000   1.0000   1.0000
     1.0000   1.0000   1.0000   1.0000   1.0000   1.0000   1.0000   1.0000
     1.0000   1.0000   1.0000   1.0000   0.0000   0.0000   0.0000   0.0000
     0.0000   0.0000   0.0000   0.0000   0.0000   0.0000   0.0000   0.0000
     0.0000   0.0000   0.0000   0.0000   0.0000

          k = 0.0000 0.2000 0.2828 ( 10071 PWs)   bands (ev):

   -48.9171 -48.9166 -48.9149 -48.9144 -23.2238 -23.2219 -23.2218 -23.2207
   -23.2204 -23.2086 -23.1928 -23.1836 -23.1606 -23.1589 -23.1586 -23.1575
   -22.1196 -22.1113 -22.0960 -22.0918  -6.7536  -6.6981  -6.1174  -5.9872
    -5.9661  -5.9155  -5.8494  -5.7056  -5.6608  -5.5941  -5.5372  -5.4938
    -4.2924  -4.2115  -4.1527  -4.1428  -4.1291  -4.0966  -4.0587  -3.9882
    -3.9763  -3.9303  -3.8694  -3.8142   5.4287   5.4338   5.6296   5.6300
     5.8727   6.0367   6.1772   6.3467   6.5290   6.5766   6.7318   6.8074
     6.9358   7.1529   7.3963   7.4355   7.4484   7.5642   7.7414   7.8104
     8.1014   8.1187   8.6604   8.8009   9.0377   9.0740   9.1918   9.2302
     9.2712   9.3082   9.3500   9.3915   9.7237   9.7798  10.0699  10.0950
    12.2886  12.3499  12.8493  12.8709  13.5742  13.5812  14.4379  14.4736
    14.7633  14.7889  14.9753  15.0608  16.1359  16.1362  16.5467  16.5528
    16.8351  17.0658  17.0824  17.2207  17.4888

     occupation numbers 
     1.0000   1.0000   1.0000   1.0000   1.0000   1.0000   1.0000   1.0000
     1.0000   1.0000   1.0000   1.0000   1.0000   1.0000   1.0000   1.0000
     1.0000   1.0000   1.0000   1.0000   1.0000   1.0000   1.0000   1.0000
     1.0000   1.0000   1.0000   1.0000   1.0000   1.0000   1.0000   1.0000
     1.0000   1.0000   1.0000   1.0000   1.0000   1.0000   1.0000   1.0000
     1.0000   1.0000   1.0000   1.0000   1.0000   1.0000   1.0000   1.0000
     1.0000   1.0000   1.0000   1.0000   1.0000   1.0000   1.0000   1.0000
     1.0000   1.0000   1.0000   1.0000   1.0000   1.0000   1.0000   1.0000
     1.0000   1.0000   1.0000   1.0000   1.0000   1.0000   1.0000   1.0000
     1.0000   1.0000   1.0000   1.0000   1.0000   1.0000   1.0000   1.0000
     1.0000   1.0000   1.0000   1.0000   0.9375   0.9142   0.0000   0.0000
     0.0000   0.0000   0.0000   0.0000   0.0000   0.0000   0.0000   0.0000
     0.0000   0.0000   0.0000   0.0000   0.0000

          k = 0.0000 0.4000 0.0000 ( 10072 PWs)   bands (ev):

   -48.9168 -48.9162 -48.9154 -48.9147 -23.2453 -23.2396 -23.2097 -23.2038
   -23.2010 -23.1998 -23.1857 -23.1795 -23.1769 -23.1757 -23.1591 -23.1571
   -22.1160 -22.1053 -22.0994 -22.0936  -6.6872  -6.5873  -6.5044  -6.0204
    -5.9317  -5.9047  -5.8418  -5.7718  -5.7447  -5.5479  -5.5307  -5.5284
    -4.3098  -4.2217  -4.1331  -4.1021  -4.0511  -4.0162  -3.9593  -3.9310
    -3.9048  -3.8824  -3.8223  -3.8113   5.2572   5.2625   6.0590   6.0963
     6.1249   6.1489   6.2635   6.3943   6.4601   6.5038   6.7750   6.8206
     6.8643   6.9605   7.0161   7.0660   7.4290   7.5853   7.6214   7.6455
     7.8713   8.1823   8.4644   8.6804   8.7997   8.9591   8.9737   9.1390
     9.2231   9.2604   9.3877   9.4845   9.5622   9.7111   9.7206   9.9550
    12.6659  12.8707  13.2042  13.4325  13.4873  13.6541  14.1368  14.4099
    14.5354  14.5755  14.8572  14.9254  16.0790  16.4219  16.7713  16.8608
    17.3386  17.5162  17.5762  17.6131  17.9111

     occupation numbers 
     1.0000   1.0000   1.0000   1.0000   1.0000   1.0000   1.0000   1.0000
     1.0000   1.0000   1.0000   1.0000   1.0000   1.0000   1.0000   1.0000
     1.0000   1.0000   1.0000   1.0000   1.0000   1.0000   1.0000   1.0000
     1.0000   1.0000   1.0000   1.0000   1.0000   1.0000   1.0000   1.0000
     1.0000   1.0000   1.0000   1.0000   1.0000   1.0000   1.0000   1.0000
     1.0000   1.0000   1.0000   1.0000   1.0000   1.0000   1.0000   1.0000
     1.0000   1.0000   1.0000   1.0000   1.0000   1.0000   1.0000   1.0000
     1.0000   1.0000   1.0000   1.0000   1.0000   1.0000   1.0000   1.0000
     1.0000   1.0000   1.0000   1.0000   1.0000   1.0000   1.0000   1.0000
     1.0000   1.0000   1.0000   1.0000   1.0000   1.0000   1.0000   1.0000
     1.0000   1.0000   1.0000   0.9999   0.9991   0.2300   0.0000   0.0000
     0.0000   0.0000   0.0000   0.0000   0.0000   0.0000   0.0000   0.0000
     0.0000   0.0000   0.0000   0.0000   0.0000

          k = 0.0000 0.4000 0.1414 ( 10078 PWs)   bands (ev):

   -48.9168 -48.9159 -48.9158 -48.9146 -23.2374 -23.2318 -23.2088 -23.2034
   -23.2017 -23.2001 -23.1850 -23.1792 -23.1778 -23.1762 -23.1674 -23.1650
   -22.1144 -22.1041 -22.1009 -22.0947  -6.6375  -6.5198  -6.4934  -6.0465
    -5.9180  -5.9083  -5.8213  -5.7862  -5.7383  -5.6000  -5.5828  -5.5792
    -4.2670  -4.2042  -4.1372  -4.1327  -4.0834  -4.0654  -3.9616  -3.9444
    -3.8940  -3.8759  -3.7982  -3.7947   5.5099   5.5135   6.0628   6.0939
     6.1264   6.1448   6.3318   6.4816   6.5236   6.5312   6.7658   6.8356
     6.8374   7.0113   7.0134   7.0802   7.2134   7.4295   7.4307   7.5859
     7.8497   7.9150   8.3409   8.5011   8.9162   9.0132   9.1396   9.1533
     9.1743   9.2420   9.3921   9.5090   9.5531   9.6737   9.7119   9.9298
    12.8093  12.9790  13.2299  13.4133  13.5779  13.7254  14.1622  14.3371
    14.3561  14.3830  14.6933  14.7344  16.5355  16.8733  16.8923  16.9669
    17.3416  17.5263  17.5752  17.6971  17.9288

     occupation numbers 
     1.0000   1.0000   1.0000   1.0000   1.0000   1.0000   1.0000   1.0000
     1.0000   1.0000   1.0000   1.0000   1.0000   1.0000   1.0000   1.0000
     1.0000   1.0000   1.0000   1.0000   1.0000   1.0000   1.0000   1.0000
     1.0000   1.0000   1.0000   1.0000   1.0000   1.0000   1.0000   1.0000
     1.0000   1.0000   1.0000   1.0000   1.0000   1.0000   1.0000   1.0000
     1.0000   1.0000   1.0000   1.0000   1.0000   1.0000   1.0000   1.0000
     1.0000   1.0000   1.0000   1.0000   1.0000   1.0000   1.0000   1.0000
     1.0000   1.0000   1.0000   1.0000   1.0000   1.0000   1.0000   1.0000
     1.0000   1.0000   1.0000   1.0000   1.0000   1.0000   1.0000   1.0000
     1.0000   1.0000   1.0000   1.0000   1.0000   1.0000   1.0000   1.0000
     1.0000   1.0000   1.0000   1.0000   0.9259   0.0090   0.0000   0.0000
     0.0000   0.0000   0.0000   0.0000   0.0000   0.0000   0.0000   0.0000
     0.0000   0.0000   0.0000   0.0000   0.0000

          k = 0.0000 0.4000 0.2828 ( 10090 PWs)   bands (ev):

   -48.9166 -48.9160 -48.9156 -48.9149 -23.2162 -23.2117 -23.2067 -23.2036
   -23.2024 -23.2011 -23.1904 -23.1859 -23.1818 -23.1798 -23.1783 -23.1771
   -22.1102 -22.1050 -22.1012 -22.0976  -6.5357  -6.4843  -6.3463  -6.1550
    -5.8825  -5.8811  -5.8337  -5.7625  -5.7520  -5.7154  -5.6662  -5.6649
    -4.1739  -4.1673  -4.1662  -4.1612  -4.1012  -4.0996  -4.0448  -4.0358
    -3.8251  -3.8234  -3.7921  -3.7897   6.0634   6.0846   6.1307   6.1342
     6.1346   6.1373   6.5355   6.5409   6.5912   6.7362   6.7390   6.8269
     6.8419   6.9574   7.0007   7.0026   7.0563   7.1851   7.1867   7.4973
     7.4990   7.5331   7.8185   7.9446   9.1800   9.2083   9.2224   9.2227
     9.2744   9.3531   9.4830   9.5134   9.5176   9.5406   9.7391   9.8410
    13.2064  13.3200  13.3237  13.3524  13.8316  13.8452  13.8688  13.9518
    14.2336  14.2780  14.3266  14.3318  17.2365  17.2480  17.4260  17.5267
    17.5559  17.5729  17.6272  17.6572  17.7372

     occupation numbers 
     1.0000   1.0000   1.0000   1.0000   1.0000   1.0000   1.0000   1.0000
     1.0000   1.0000   1.0000   1.0000   1.0000   1.0000   1.0000   1.0000
     1.0000   1.0000   1.0000   1.0000   1.0000   1.0000   1.0000   1.0000
     1.0000   1.0000   1.0000   1.0000   1.0000   1.0000   1.0000   1.0000
     1.0000   1.0000   1.0000   1.0000   1.0000   1.0000   1.0000   1.0000
     1.0000   1.0000   1.0000   1.0000   1.0000   1.0000   1.0000   1.0000
     1.0000   1.0000   1.0000   1.0000   1.0000   1.0000   1.0000   1.0000
     1.0000   1.0000   1.0000   1.0000   1.0000   1.0000   1.0000   1.0000
     1.0000   1.0000   1.0000   1.0000   1.0000   1.0000   1.0000   1.0000
     1.0000   1.0000   1.0000   1.0000   1.0000   1.0000   1.0000   1.0000
     1.0000   1.0000   1.0000   1.0000   0.0000   0.0000   0.0000   0.0000
     0.0000   0.0000   0.0000   0.0000   0.0000   0.0000   0.0000   0.0000
     0.0000   0.0000   0.0000   0.0000   0.0000

          k = 0.2000 0.2000 0.0000 ( 10069 PWs)   bands (ev):

   -48.9174 -48.9160 -48.9156 -48.9138 -23.2491 -23.2369 -23.2359 -23.2281
   -23.2029 -23.1988 -23.1853 -23.1776 -23.1604 -23.1559 -23.1514 -23.1480
   -22.1238 -22.1019 -22.1009 -22.0896  -6.7681  -6.7463  -6.5365  -6.0305
    -5.8929  -5.8838  -5.8056  -5.6482  -5.6206  -5.4931  -5.4915  -5.4873
    -4.2918  -4.1558  -4.1549  -4.1193  -4.1187  -4.1022  -4.0846  -3.9732
    -3.9611  -3.8647  -3.7588  -3.7207   5.1716   5.2569   5.2655   5.3822
     5.8500   5.9483   6.2342   6.3612   6.4049   6.4633   6.4670   7.0001
     7.0723   7.3234   7.3832   7.4629   7.5674   7.7148   7.7179   8.3335
     8.5262   8.5309   8.5326   8.7222   8.7522   8.8266   8.8294   8.8755
     9.0635   9.3677   9.6010   9.6037   9.8334   9.8370   9.8520  10.2407
    11.7316  12.7326  12.7379  12.8554  13.5988  14.3759  14.3896  14.4889
    14.7412  14.9732  14.9879  15.3150  15.5349  16.2189  16.2774  16.2788
    16.5247  16.5344  17.0940  17.2937  17.8359

     occupation numbers 
     1.0000   1.0000   1.0000   1.0000   1.0000   1.0000   1.0000   1.0000
     1.0000   1.0000   1.0000   1.0000   1.0000   1.0000   1.0000   1.0000
     1.0000   1.0000   1.0000   1.0000   1.0000   1.0000   1.0000   1.0000
     1.0000   1.0000   1.0000   1.0000   1.0000   1.0000   1.0000   1.0000
     1.0000   1.0000   1.0000   1.0000   1.0000   1.0000   1.0000   1.0000
     1.0000   1.0000   1.0000   1.0000   1.0000   1.0000   1.0000   1.0000
     1.0000   1.0000   1.0000   1.0000   1.0000   1.0000   1.0000   1.0000
     1.0000   1.0000   1.0000   1.0000   1.0000   1.0000   1.0000   1.0000
     1.0000   1.0000   1.0000   1.0000   1.0000   1.0000   1.0000   1.0000
     1.0000   1.0000   1.0000   1.0000   1.0000   1.0000   1.0000   1.0000
     1.0000   1.0000   1.0000   1.0000   0.8175   0.0000   0.0000   0.0000
     0.0000   0.0000   0.0000   0.0000   0.0000   0.0000   0.0000   0.0000
     0.0000   0.0000   0.0000   0.0000   0.0000

          k = 0.2000 0.2000 0.1414 ( 10067 PWs)   bands (ev):

   -48.9172 -48.9160 -48.9156 -48.9140 -23.2408 -23.2352 -23.2292 -23.2288
   -23.2026 -23.1992 -23.1847 -23.1783 -23.1688 -23.1638 -23.1511 -23.1483
   -22.1216 -22.1039 -22.0998 -22.0907  -6.7357  -6.7273  -6.4652  -6.0079
    -5.9011  -5.8999  -5.7786  -5.7704  -5.6078  -5.5607  -5.5006  -5.4794
    -4.3164  -4.1460  -4.1371  -4.1135  -4.1063  -4.0987  -4.0628  -3.9853
    -3.9510  -3.8600  -3.7969  -3.7485   5.2383   5.2576   5.5169   5.5737
     5.8938   5.9946   6.2380   6.3549   6.4444   6.4558   6.5861   6.9734
     7.0843   7.0952   7.2306   7.4783   7.4913   7.6570   7.6921   8.1499
     8.3615   8.4008   8.4386   8.7891   8.8185   8.8504   8.9510   9.0817
     9.0903   9.3461   9.3912   9.4657   9.7629   9.8215   9.8550  10.1564
    12.0478  12.7543  12.8393  12.8402  13.6981  14.1487  14.2734  14.4438
    14.7639  14.8009  14.9621  15.2012  15.7731  16.2645  16.3979  16.4150
    16.7226  16.9688  17.1740  17.4841  17.6611

     occupation numbers 
     1.0000   1.0000   1.0000   1.0000   1.0000   1.0000   1.0000   1.0000
     1.0000   1.0000   1.0000   1.0000   1.0000   1.0000   1.0000   1.0000
     1.0000   1.0000   1.0000   1.0000   1.0000   1.0000   1.0000   1.0000
     1.0000   1.0000   1.0000   1.0000   1.0000   1.0000   1.0000   1.0000
     1.0000   1.0000   1.0000   1.0000   1.0000   1.0000   1.0000   1.0000
     1.0000   1.0000   1.0000   1.0000   1.0000   1.0000   1.0000   1.0000
     1.0000   1.0000   1.0000   1.0000   1.0000   1.0000   1.0000   1.0000
     1.0000   1.0000   1.0000   1.0000   1.0000   1.0000   1.0000   1.0000
     1.0000   1.0000   1.0000   1.0000   1.0000   1.0000   1.0000   1.0000
     1.0000   1.0000   1.0000   1.0000   1.0000   1.0000   1.0000   1.0000
     1.0000   1.0000   1.0000   1.0000   0.0335   0.0000   0.0000   0.0000
     0.0000   0.0000   0.0000   0.0000   0.0000   0.0000   0.0000   0.0000
     0.0000   0.0000   0.0000   0.0000   0.0000

          k = 0.2000 0.2000 0.2828 ( 10073 PWs)   bands (ev):

   -48.9168 -48.9164 -48.9151 -48.9147 -23.2332 -23.2308 -23.2191 -23.2092
   -23.2016 -23.2004 -23.1923 -23.1842 -23.1818 -23.1800 -23.1501 -23.1491
   -22.1160 -22.1093 -22.0970 -22.0936  -6.6896  -6.6858  -6.2741  -6.0245
    -5.9305  -5.9178  -5.9037  -5.7440  -5.6712  -5.5693  -5.5498  -5.5287
    -4.3081  -4.2361  -4.1310  -4.1171  -4.0517  -4.0170  -4.0121  -3.9601
    -3.9057  -3.8972  -3.8845  -3.8219   5.2590   5.2593   5.9971   6.0614
     6.1466   6.1627   6.2452   6.3934   6.4624   6.7009   6.7124   6.8193
     6.8617   6.8868   7.0139   7.2034   7.5096   7.5542   7.5853   7.6240
     7.8848   8.1846   8.4732   8.6779   8.8948   8.9595   9.1383   9.2617
     9.2625   9.3305   9.3852   9.4308   9.5599   9.7219   9.8716   9.9557
    12.6679  12.7984  12.8737  13.1994  13.5555  13.7540  13.9880  14.4031
    14.6108  14.8276  14.8665  14.9280  16.0817  16.2129  16.7791  16.8548
    17.2475  17.3414  17.4315  17.5629  17.7915

     occupation numbers 
     1.0000   1.0000   1.0000   1.0000   1.0000   1.0000   1.0000   1.0000
     1.0000   1.0000   1.0000   1.0000   1.0000   1.0000   1.0000   1.0000
     1.0000   1.0000   1.0000   1.0000   1.0000   1.0000   1.0000   1.0000
     1.0000   1.0000   1.0000   1.0000   1.0000   1.0000   1.0000   1.0000
     1.0000   1.0000   1.0000   1.0000   1.0000   1.0000   1.0000   1.0000
     1.0000   1.0000   1.0000   1.0000   1.0000   1.0000   1.0000   1.0000
     1.0000   1.0000   1.0000   1.0000   1.0000   1.0000   1.0000   1.0000
     1.0000   1.0000   1.0000   1.0000   1.0000   1.0000   1.0000   1.0000
     1.0000   1.0000   1.0000   1.0000   1.0000   1.0000   1.0000   1.0000
     1.0000   1.0000   1.0000   1.0000   1.0000   1.0000   1.0000   1.0000
     1.0000   1.0000   1.0000   1.0000   0.9740   0.0022   0.0000   0.0000
     0.0000   0.0000   0.0000   0.0000   0.0000   0.0000   0.0000   0.0000
     0.0000   0.0000   0.0000   0.0000   0.0000

          k = 0.2000 0.4000 0.0000 ( 10091 PWs)   bands (ev):

   -48.9168 -48.9160 -48.9156 -48.9147 -23.2440 -23.2393 -23.2321 -23.2217
   -23.2130 -23.2026 -23.1782 -23.1744 -23.1589 -23.1586 -23.1573 -23.1548
   -22.1125 -22.1039 -22.0999 -22.0952  -6.8075  -6.7294  -6.4635  -6.0545
    -5.9915  -5.9012  -5.7685  -5.6837  -5.6222  -5.6114  -5.6052  -5.5577
    -4.2119  -4.1393  -4.1286  -4.1055  -4.0975  -3.9860  -3.9362  -3.9152
    -3.8582  -3.8128  -3.7984  -3.7474   5.2332   5.2558   5.5192   5.5794
     5.7715   5.8896   6.1873   6.2389   6.4589   6.7180   6.7749   7.0840
     7.0945   7.2325   7.2995   7.4199   7.4762   7.6247   7.6538   7.8038
     8.0698   8.3696   8.4003   8.4275   8.8069   8.8613   8.9343   8.9533
     9.0780   9.2686   9.3542   9.3744   9.3851   9.3935   9.8521  10.1346
    12.1042  12.8352  13.5297  13.5683  13.7027  14.1522  14.2767  14.4470
    14.4828  14.6553  14.7514  15.1134  15.7916  16.2603  16.9360  16.9537
    16.9762  17.4101  17.5374  17.6502  17.9075

     occupation numbers 
     1.0000   1.0000   1.0000   1.0000   1.0000   1.0000   1.0000   1.0000
     1.0000   1.0000   1.0000   1.0000   1.0000   1.0000   1.0000   1.0000
     1.0000   1.0000   1.0000   1.0000   1.0000   1.0000   1.0000   1.0000
     1.0000   1.0000   1.0000   1.0000   1.0000   1.0000   1.0000   1.0000
     1.0000   1.0000   1.0000   1.0000   1.0000   1.0000   1.0000   1.0000
     1.0000   1.0000   1.0000   1.0000   1.0000   1.0000   1.0000   1.0000
     1.0000   1.0000   1.0000   1.0000   1.0000   1.0000   1.0000   1.0000
     1.0000   1.0000   1.0000   1.0000   1.0000   1.0000   1.0000   1.0000
     1.0000   1.0000   1.0000   1.0000   1.0000   1.0000   1.0000   1.0000
     1.0000   1.0000   1.0000   1.0000   1.0000   1.0000   1.0000   1.0000
     1.0000   1.0000   0.9925   0.9525   0.0268   0.0000   0.0000   0.0000
     0.0000   0.0000   0.0000   0.0000   0.0000   0.0000   0.0000   0.0000
     0.0000   0.0000   0.0000   0.0000   0.0000

          k = 0.2000 0.4000 0.1414 ( 10093 PWs)   bands (ev):

   -48.9166 -48.9161 -48.9156 -48.9149 -23.2360 -23.2316 -23.2311 -23.2227
   -23.2120 -23.2035 -23.1780 -23.1747 -23.1671 -23.1652 -23.1582 -23.1552
   -22.1113 -22.1030 -22.1011 -22.0960  -6.7551  -6.6650  -6.4709  -6.1154
    -5.9667  -5.8708  -5.7857  -5.7089  -5.6538  -5.6515  -5.5965  -5.5692
    -4.2133  -4.1515  -4.1406  -4.1363  -4.0646  -3.9714  -3.9568  -3.8954
    -3.8696  -3.8146  -3.7912  -3.7645   5.4271   5.5055   5.5181   5.6303
     5.8686   5.9698   6.1804   6.2730   6.4480   6.7329   6.8091   7.0792
     7.1259   7.1547   7.1885   7.2818   7.4287   7.4563   7.4867   7.7396
     7.8089   8.3718   8.4816   8.6623   8.8174   8.8424   8.9788   9.0423
     9.0582   9.0731   9.2638   9.3169   9.3892   9.4012   9.8253  10.0661
    12.3447  12.9872  13.5773  13.5838  13.6863  14.1935  14.2161  14.3103
    14.4400  14.4804  14.5687  14.9627  16.1319  16.6814  16.9579  17.0572
    17.0825  17.4908  17.6273  17.7405  17.8898

     occupation numbers 
     1.0000   1.0000   1.0000   1.0000   1.0000   1.0000   1.0000   1.0000
     1.0000   1.0000   1.0000   1.0000   1.0000   1.0000   1.0000   1.0000
     1.0000   1.0000   1.0000   1.0000   1.0000   1.0000   1.0000   1.0000
     1.0000   1.0000   1.0000   1.0000   1.0000   1.0000   1.0000   1.0000
     1.0000   1.0000   1.0000   1.0000   1.0000   1.0000   1.0000   1.0000
     1.0000   1.0000   1.0000   1.0000   1.0000   1.0000   1.0000   1.0000
     1.0000   1.0000   1.0000   1.0000   1.0000   1.0000   1.0000   1.0000
     1.0000   1.0000   1.0000   1.0000   1.0000   1.0000   1.0000   1.0000
     1.0000   1.0000   1.0000   1.0000   1.0000   1.0000   1.0000   1.0000
     1.0000   1.0000   1.0000   1.0000   1.0000   1.0000   1.0000   1.0000
     1.0000   1.0000   0.9280   0.9037   0.0582   0.0000   0.0000   0.0000
     0.0000   0.0000   0.0000   0.0000   0.0000   0.0000   0.0000   0.0000
     0.0000   0.0000   0.0000   0.0000   0.0000

          k = 0.2000 0.4000 0.2828 ( 10093 PWs)   bands (ev):

   -48.9164 -48.9159 -48.9158 -48.9152 -23.2286 -23.2254 -23.2155 -23.2113
   -23.2095 -23.2055 -23.1884 -23.1859 -23.1769 -23.1757 -23.1573 -23.1561
   -22.1081 -22.1042 -22.1009 -22.0982  -6.6311  -6.5181  -6.4954  -6.2844
    -5.8969  -5.8210  -5.7889  -5.7507  -5.7392  -5.6968  -5.6158  -5.5958
    -4.2167  -4.2027  -4.1382  -4.1329  -4.0220  -3.9738  -3.9680  -3.9344
    -3.8252  -3.8111  -3.7977  -3.7951   5.5107   5.5157   6.0347   6.0920
     6.1246   6.1584   6.2935   6.3333   6.5222   6.6778   6.7492   6.8393
     6.9256   7.0094   7.0770   7.2030   7.2171   7.3163   7.4311   7.5164
     7.6447   7.8478   8.3404   8.4312   8.9184   8.9853   9.0182   9.1003
     9.1520   9.2396   9.2451   9.3543   9.4369   9.5097   9.7100   9.8428
    12.9367  13.4076  13.5782  13.6231  13.7292  13.7775  13.9654  14.1565
    14.3414  14.3607  14.4174  14.6342  16.6519  16.8792  17.3480  17.4872
    17.5151  17.7117  17.7783  17.8007  17.9155

     occupation numbers 
     1.0000   1.0000   1.0000   1.0000   1.0000   1.0000   1.0000   1.0000
     1.0000   1.0000   1.0000   1.0000   1.0000   1.0000   1.0000   1.0000
     1.0000   1.0000   1.0000   1.0000   1.0000   1.0000   1.0000   1.0000
     1.0000   1.0000   1.0000   1.0000   1.0000   1.0000   1.0000   1.0000
     1.0000   1.0000   1.0000   1.0000   1.0000   1.0000   1.0000   1.0000
     1.0000   1.0000   1.0000   1.0000   1.0000   1.0000   1.0000   1.0000
     1.0000   1.0000   1.0000   1.0000   1.0000   1.0000   1.0000   1.0000
     1.0000   1.0000   1.0000   1.0000   1.0000   1.0000   1.0000   1.0000
     1.0000   1.0000   1.0000   1.0000   1.0000   1.0000   1.0000   1.0000
     1.0000   1.0000   1.0000   1.0000   1.0000   1.0000   1.0000   1.0000
     1.0000   1.0000   0.9248   0.5770   0.0075   0.0007   0.0000   0.0000
     0.0000   0.0000   0.0000   0.0000   0.0000   0.0000   0.0000   0.0000
     0.0000   0.0000   0.0000   0.0000   0.0000

          k = 0.4000 0.4000 0.0000 ( 10083 PWs)   bands (ev):

   -48.9166 -48.9163 -48.9154 -48.9149 -23.2441 -23.2410 -23.2394 -23.2366
   -23.2304 -23.2232 -23.1585 -23.1578 -23.1569 -23.1537 -23.1495 -23.1462
   -22.1059 -22.1026 -22.1002 -22.0984  -6.9390  -6.9105  -6.3445  -6.1784
    -6.0080  -5.9734  -5.7566  -5.7248  -5.7207  -5.7194  -5.4043  -5.3604
    -4.1247  -4.1223  -4.1138  -4.1012  -4.0763  -4.0725  -3.8087  -3.8064
    -3.7865  -3.7670  -3.6927  -3.6716   5.1623   5.2272   5.2748   5.3724
     5.4870   5.5200   5.5305   5.5653   7.0190   7.0218   7.0234   7.2188
     7.2349   7.5769   7.6129   7.6175   7.6213   7.6973   7.8589   7.8612
     7.9481   8.1539   8.3417   8.4268   8.6613   8.7255   8.7496   8.7809
     8.9457   8.9463   9.2014   9.3252   9.4920   9.4943  10.1133  10.1998
    11.8470  12.1697  14.1326  14.1391  14.1823  14.3656  14.3780  14.4259
    14.4703  14.4823  15.0145  15.1654  15.5180  15.7977  16.6259  17.0150
    17.2662  17.2946  17.5712  17.6464  17.8691

     occupation numbers 
     1.0000   1.0000   1.0000   1.0000   1.0000   1.0000   1.0000   1.0000
     1.0000   1.0000   1.0000   1.0000   1.0000   1.0000   1.0000   1.0000
     1.0000   1.0000   1.0000   1.0000   1.0000   1.0000   1.0000   1.0000
     1.0000   1.0000   1.0000   1.0000   1.0000   1.0000   1.0000   1.0000
     1.0000   1.0000   1.0000   1.0000   1.0000   1.0000   1.0000   1.0000
     1.0000   1.0000   1.0000   1.0000   1.0000   1.0000   1.0000   1.0000
     1.0000   1.0000   1.0000   1.0000   1.0000   1.0000   1.0000   1.0000
     1.0000   1.0000   1.0000   1.0000   1.0000   1.0000   1.0000   1.0000
     1.0000   1.0000   1.0000   1.0000   1.0000   1.0000   1.0000   1.0000
     1.0000   1.0000   1.0000   1.0000   1.0000   1.0000   1.0000   1.0000
     1.0000   1.0000   0.0000   0.0000   0.0000   0.0000   0.0000   0.0000
     0.0000   0.0000   0.0000   0.0000   0.0000   0.0000   0.0000   0.0000
     0.0000   0.0000   0.0000   0.0000   0.0000

          k = 0.4000 0.4000 0.1414 ( 10091 PWs)   bands (ev):

   -48.9164 -48.9161 -48.9156 -48.9152 -23.2427 -23.2355 -23.2334 -23.2318
   -23.2316 -23.2244 -23.1664 -23.1656 -23.1567 -23.1540 -23.1491 -23.1466
   -22.1053 -22.1022 -22.1007 -22.0988  -6.8809  -6.8485  -6.3968  -6.2665
    -5.9787  -5.9420  -5.7772  -5.7264  -5.7024  -5.6884  -5.4514  -5.3987
    -4.1477  -4.1198  -4.1128  -4.0813  -4.0776  -4.0124  -3.8213  -3.8114
    -3.8102  -3.7763  -3.7094  -3.6944   5.2305   5.2726   5.4216   5.5275
     5.5679   5.5768   5.5897   5.6885   6.8750   7.0399   7.0777   7.0993
     7.2300   7.2620   7.2986   7.4933   7.5823   7.6514   7.6571   7.8070
     8.2232   8.3536   8.5686   8.6077   8.7407   8.7860   8.8063   8.8442
     8.9100   8.9333   8.9431   9.2056   9.2178   9.3419  10.0482  10.1187
    12.1511  12.4119  14.1389  14.1442  14.1534  14.2034  14.2600  14.3973
    14.4125  14.4753  14.8676  15.0421  15.7963  16.1264  16.6049  17.0233
    17.3962  17.4333  17.6729  17.7351  18.0140

     occupation numbers 
     1.0000   1.0000   1.0000   1.0000   1.0000   1.0000   1.0000   1.0000
     1.0000   1.0000   1.0000   1.0000   1.0000   1.0000   1.0000   1.0000
     1.0000   1.0000   1.0000   1.0000   1.0000   1.0000   1.0000   1.0000
     1.0000   1.0000   1.0000   1.0000   1.0000   1.0000   1.0000   1.0000
     1.0000   1.0000   1.0000   1.0000   1.0000   1.0000   1.0000   1.0000
     1.0000   1.0000   1.0000   1.0000   1.0000   1.0000   1.0000   1.0000
     1.0000   1.0000   1.0000   1.0000   1.0000   1.0000   1.0000   1.0000
     1.0000   1.0000   1.0000   1.0000   1.0000   1.0000   1.0000   1.0000
     1.0000   1.0000   1.0000   1.0000   1.0000   1.0000   1.0000   1.0000
     1.0000   1.0000   1.0000   1.0000   1.0000   1.0000   1.0000   1.0000
     1.0000   1.0000   0.0000   0.0000   0.0000   0.0000   0.0000   0.0000
     0.0000   0.0000   0.0000   0.0000   0.0000   0.0000   0.0000   0.0000
     0.0000   0.0000   0.0000   0.0000   0.0000

          k = 0.4000 0.4000 0.2828 ( 10112 PWs)   bands (ev):

   -48.9160 -48.9159 -48.9159 -48.9156 -23.2393 -23.2352 -23.2321 -23.2281
   -23.2127 -23.2115 -23.1871 -23.1862 -23.1559 -23.1549 -23.1483 -23.1474
   -22.1039 -22.1021 -22.1011 -22.0998  -6.7289  -6.6824  -6.5426  -6.4649
    -5.9023  -5.8610  -5.8183  -5.7711  -5.6595  -5.6048  -5.5589  -5.4943
    -4.1569  -4.1382  -4.1068  -4.0907  -3.9860  -3.9296  -3.8825  -3.8608
    -3.7966  -3.7770  -3.7483  -3.7474   5.2579   5.2669   5.5067   5.5195
     5.8900   5.9391   6.2359   6.2613   6.3592   6.4555   7.0499   7.0866
     7.0920   7.1334   7.2311   7.3521   7.4467   7.4594   7.4800   7.6560
     8.3651   8.4034   8.4896   8.5422   8.7189   8.7636   8.8114   8.8590
     8.8969   8.9515   9.0383   9.0814   9.3761   9.3911   9.8228   9.8517
    12.8345  13.0047  13.5841  13.6959  14.1586  14.1724  14.2694  14.4214
    14.4578  14.5114  14.5502  14.7528  16.2612  16.5135  16.6885  16.9730
    17.6575  17.9035  17.9200  17.9662  18.0526

     occupation numbers 
     1.0000   1.0000   1.0000   1.0000   1.0000   1.0000   1.0000   1.0000
     1.0000   1.0000   1.0000   1.0000   1.0000   1.0000   1.0000   1.0000
     1.0000   1.0000   1.0000   1.0000   1.0000   1.0000   1.0000   1.0000
     1.0000   1.0000   1.0000   1.0000   1.0000   1.0000   1.0000   1.0000
     1.0000   1.0000   1.0000   1.0000   1.0000   1.0000   1.0000   1.0000
     1.0000   1.0000   1.0000   1.0000   1.0000   1.0000   1.0000   1.0000
     1.0000   1.0000   1.0000   1.0000   1.0000   1.0000   1.0000   1.0000
     1.0000   1.0000   1.0000   1.0000   1.0000   1.0000   1.0000   1.0000
     1.0000   1.0000   1.0000   1.0000   1.0000   1.0000   1.0000   1.0000
     1.0000   1.0000   1.0000   1.0000   1.0000   1.0000   1.0000   1.0000
     1.0000   1.0000   0.9022   0.0372   0.0000   0.0000   0.0000   0.0000
     0.0000   0.0000   0.0000   0.0000   0.0000   0.0000   0.0000   0.0000
     0.0000   0.0000   0.0000   0.0000   0.0000

          k = 0.2000 0.0000 0.0000 ( 10076 PWs)   bands (ev):

   -48.9175 -48.9161 -48.9156 -48.9139 -23.2514 -23.2364 -23.2253 -23.2238
   -23.2196 -23.2193 -23.1621 -23.1609 -23.1605 -23.1570 -23.1565 -23.1553
   -22.1292 -22.1023 -22.1007 -22.0871  -6.8465  -6.7195  -6.3972  -6.0210
    -6.0101  -5.9416  -5.7791  -5.7028  -5.5267  -5.4001  -5.3970  -5.3563
    -4.3751  -4.2587  -4.2276  -4.1465  -4.1459  -4.1258  -4.0760  -4.0686
    -4.0142  -3.8080  -3.7776  -3.6957   5.2287   5.2702   5.4229   5.4397
     5.5793   5.6898   5.8224   6.1512   6.2889   6.3632   6.8749   7.2377
     7.2511   7.2964   7.4971   7.5010   7.6360   7.6598   7.7460   8.5693
     8.5984   8.6204   8.7452   8.7894   8.8025   8.8404   8.9349   9.1218
     9.2062   9.3080   9.4653   9.5912  10.0517  10.0542  10.1016  10.1933
    11.9663  12.0657  12.2442  12.4174  14.1431  14.2067  14.3931  14.3956
    14.8816  15.1489  15.2518  15.2739  15.7045  15.9823  15.9881  16.1296
    16.1322  16.3456  16.6003  17.3300  17.3982

     occupation numbers 
     1.0000   1.0000   1.0000   1.0000   1.0000   1.0000   1.0000   1.0000
     1.0000   1.0000   1.0000   1.0000   1.0000   1.0000   1.0000   1.0000
     1.0000   1.0000   1.0000   1.0000   1.0000   1.0000   1.0000   1.0000
     1.0000   1.0000   1.0000   1.0000   1.0000   1.0000   1.0000   1.0000
     1.0000   1.0000   1.0000   1.0000   1.0000   1.0000   1.0000   1.0000
     1.0000   1.0000   1.0000   1.0000   1.0000   1.0000   1.0000   1.0000
     1.0000   1.0000   1.0000   1.0000   1.0000   1.0000   1.0000   1.0000
     1.0000   1.0000   1.0000   1.0000   1.0000   1.0000   1.0000   1.0000
     1.0000   1.0000   1.0000   1.0000   1.0000   1.0000   1.0000   1.0000
     1.0000   1.0000   1.0000   1.0000   1.0000   1.0000   1.0000   1.0000
     1.0000   1.0000   1.0000   1.0000   0.0000   0.0000   0.0000   0.0000
     0.0000   0.0000   0.0000   0.0000   0.0000   0.0000   0.0000   0.0000
     0.0000   0.0000   0.0000   0.0000   0.0000

          k = 0.2000 0.0000-0.1414 ( 10060 PWs)   bands (ev):

   -48.9175 -48.9163 -48.9152 -48.9139 -23.2430 -23.2287 -23.2246 -23.2233
   -23.2199 -23.2197 -23.1700 -23.1633 -23.1613 -23.1601 -23.1571 -23.1570
   -22.1265 -22.1048 -22.0994 -22.0884  -6.8193  -6.7011  -6.3207  -6.0075
    -6.0038  -5.9484  -5.7506  -5.6748  -5.6258  -5.4874  -5.4147  -5.4143
    -4.3076  -4.3032  -4.1445  -4.1351  -4.1297  -4.1200  -4.1180  -4.0317
    -4.0284  -3.8517  -3.7994  -3.7275   5.4244   5.4357   5.4380   5.5222
     5.6030   5.7318   5.8599   6.1879   6.3501   6.3527   6.9519   7.0702
     7.1256   7.3012   7.3986   7.5541   7.6175   7.6190   7.6888   8.3515
     8.5105   8.5131   8.5924   8.8454   8.9182   8.9594   8.9717   9.1088
     9.2149   9.2233   9.4326   9.4328  10.0041  10.0061  10.0560  10.1451
    12.1789  12.2908  12.2960  12.3989  14.1645  14.1649  14.2161  14.2754
    14.9071  15.0825  15.1272  15.1398  16.1210  16.1240  16.1317  16.1457
    16.1481  16.5064  17.0143  17.5338  17.5480

     occupation numbers 
     1.0000   1.0000   1.0000   1.0000   1.0000   1.0000   1.0000   1.0000
     1.0000   1.0000   1.0000   1.0000   1.0000   1.0000   1.0000   1.0000
     1.0000   1.0000   1.0000   1.0000   1.0000   1.0000   1.0000   1.0000
     1.0000   1.0000   1.0000   1.0000   1.0000   1.0000   1.0000   1.0000
     1.0000   1.0000   1.0000   1.0000   1.0000   1.0000   1.0000   1.0000
     1.0000   1.0000   1.0000   1.0000   1.0000   1.0000   1.0000   1.0000
     1.0000   1.0000   1.0000   1.0000   1.0000   1.0000   1.0000   1.0000
     1.0000   1.0000   1.0000   1.0000   1.0000   1.0000   1.0000   1.0000
     1.0000   1.0000   1.0000   1.0000   1.0000   1.0000   1.0000   1.0000
     1.0000   1.0000   1.0000   1.0000   1.0000   1.0000   1.0000   1.0000
     1.0000   1.0000   1.0000   1.0000   0.0000   0.0000   0.0000   0.0000
     0.0000   0.0000   0.0000   0.0000   0.0000   0.0000   0.0000   0.0000
     0.0000   0.0000   0.0000   0.0000   0.0000

          k = 0.0000 0.2000-0.1414 ( 10060 PWs)   bands (ev):

   -48.9175 -48.9163 -48.9152 -48.9139 -23.2430 -23.2287 -23.2252 -23.2228
   -23.2203 -23.2194 -23.1700 -23.1633 -23.1619 -23.1596 -23.1575 -23.1566
   -22.1265 -22.1048 -22.0994 -22.0884  -6.8194  -6.7016  -6.3220  -6.0072
    -6.0038  -5.9484  -5.7459  -5.6763  -5.6275  -5.4888  -5.4143  -5.4115
    -4.3074  -4.3071  -4.1472  -4.1390  -4.1319  -4.1182  -4.1132  -4.0296
    -4.0252  -3.8556  -3.7963  -3.7272   5.4246   5.4357   5.4381   5.5223
     5.6017   5.7327   5.8590   6.1883   6.3498   6.3526   6.9507   7.0705
     7.1247   7.3008   7.3975   7.5524   7.6173   7.6200   7.6901   8.3525
     8.5099   8.5102   8.5907   8.8726   8.8740   8.9720   8.9786   9.1073
     9.2173   9.2251   9.4330   9.4347  10.0043  10.0077  10.0562  10.1470
    12.1771  12.2918  12.2941  12.3984  14.1570  14.1725  14.2201  14.2706
    14.9064  15.0804  15.1314  15.1373  16.1199  16.1291  16.1332  16.1439
    16.1498  16.5043  17.0149  17.5303  17.5472

     occupation numbers 
     1.0000   1.0000   1.0000   1.0000   1.0000   1.0000   1.0000   1.0000
     1.0000   1.0000   1.0000   1.0000   1.0000   1.0000   1.0000   1.0000
     1.0000   1.0000   1.0000   1.0000   1.0000   1.0000   1.0000   1.0000
     1.0000   1.0000   1.0000   1.0000   1.0000   1.0000   1.0000   1.0000
     1.0000   1.0000   1.0000   1.0000   1.0000   1.0000   1.0000   1.0000
     1.0000   1.0000   1.0000   1.0000   1.0000   1.0000   1.0000   1.0000
     1.0000   1.0000   1.0000   1.0000   1.0000   1.0000   1.0000   1.0000
     1.0000   1.0000   1.0000   1.0000   1.0000   1.0000   1.0000   1.0000
     1.0000   1.0000   1.0000   1.0000   1.0000   1.0000   1.0000   1.0000
     1.0000   1.0000   1.0000   1.0000   1.0000   1.0000   1.0000   1.0000
     1.0000   1.0000   1.0000   1.0000   0.0000   0.0000   0.0000   0.0000
     0.0000   0.0000   0.0000   0.0000   0.0000   0.0000   0.0000   0.0000
     0.0000   0.0000   0.0000   0.0000   0.0000

          k = 0.2000 0.0000-0.2828 ( 10071 PWs)   bands (ev):

   -48.9171 -48.9166 -48.9149 -48.9144 -23.2232 -23.2224 -23.2214 -23.2210
   -23.2207 -23.2086 -23.1928 -23.1836 -23.1600 -23.1591 -23.1584 -23.1581
   -22.1196 -22.1113 -22.0960 -22.0918  -6.7534  -6.6978  -6.1157  -5.9875
    -5.9657  -5.9123  -5.8517  -5.7178  -5.6480  -5.5975  -5.5384  -5.4944
    -4.2930  -4.2118  -4.1429  -4.1396  -4.1337  -4.0968  -4.0620  -3.9908
    -3.9725  -3.9315  -3.8719  -3.8148   5.4285   5.4337   5.6303   5.6310
     5.8720   6.0367   6.1772   6.3465   6.5291   6.5771   6.7315   6.8085
     6.9361   7.1553   7.3966   7.4215   7.4598   7.5638   7.7427   7.8108
     8.1016   8.1200   8.6627   8.8043   9.0364   9.0746   9.1902   9.2297
     9.2609   9.3201   9.3470   9.3847   9.7243   9.7768  10.0697  10.0947
    12.2900  12.3507  12.8512  12.8696  13.5775  13.5781  14.4342  14.4784
    14.7608  14.7923  14.9757  15.0612  16.1332  16.1338  16.5477  16.5497
    16.8369  17.0625  17.0834  17.2233  17.4908

     occupation numbers 
     1.0000   1.0000   1.0000   1.0000   1.0000   1.0000   1.0000   1.0000
     1.0000   1.0000   1.0000   1.0000   1.0000   1.0000   1.0000   1.0000
     1.0000   1.0000   1.0000   1.0000   1.0000   1.0000   1.0000   1.0000
     1.0000   1.0000   1.0000   1.0000   1.0000   1.0000   1.0000   1.0000
     1.0000   1.0000   1.0000   1.0000   1.0000   1.0000   1.0000   1.0000
     1.0000   1.0000   1.0000   1.0000   1.0000   1.0000   1.0000   1.0000
     1.0000   1.0000   1.0000   1.0000   1.0000   1.0000   1.0000   1.0000
     1.0000   1.0000   1.0000   1.0000   1.0000   1.0000   1.0000   1.0000
     1.0000   1.0000   1.0000   1.0000   1.0000   1.0000   1.0000   1.0000
     1.0000   1.0000   1.0000   1.0000   1.0000   1.0000   1.0000   1.0000
     1.0000   1.0000   1.0000   1.0000   0.9272   0.9251   0.0000   0.0000
     0.0000   0.0000   0.0000   0.0000   0.0000   0.0000   0.0000   0.0000
     0.0000   0.0000   0.0000   0.0000   0.0000

          k = 0.0000 0.2000-0.2828 ( 10071 PWs)   bands (ev):

   -48.9171 -48.9166 -48.9149 -48.9144 -23.2238 -23.2219 -23.2218 -23.2207
   -23.2204 -23.2086 -23.1928 -23.1836 -23.1606 -23.1589 -23.1586 -23.1575
   -22.1196 -22.1113 -22.0960 -22.0918  -6.7536  -6.6981  -6.1174  -5.9872
    -5.9661  -5.9155  -5.8494  -5.7056  -5.6608  -5.5941  -5.5372  -5.4938
    -4.2924  -4.2115  -4.1527  -4.1428  -4.1291  -4.0966  -4.0587  -3.9882
    -3.9763  -3.9303  -3.8694  -3.8142   5.4287   5.4338   5.6296   5.6300
     5.8727   6.0367   6.1772   6.3467   6.5290   6.5766   6.7318   6.8074
     6.9358   7.1529   7.3963   7.4355   7.4484   7.5642   7.7414   7.8104
     8.1014   8.1187   8.6604   8.8009   9.0377   9.0740   9.1918   9.2302
     9.2712   9.3082   9.3500   9.3915   9.7237   9.7798  10.0699  10.0950
    12.2886  12.3499  12.8493  12.8709  13.5742  13.5812  14.4379  14.4736
    14.7633  14.7889  14.9753  15.0608  16.1359  16.1362  16.5467  16.5528
    16.8351  17.0658  17.0824  17.2207  17.4888

     occupation numbers 
     1.0000   1.0000   1.0000   1.0000   1.0000   1.0000   1.0000   1.0000
     1.0000   1.0000   1.0000   1.0000   1.0000   1.0000   1.0000   1.0000
     1.0000   1.0000   1.0000   1.0000   1.0000   1.0000   1.0000   1.0000
     1.0000   1.0000   1.0000   1.0000   1.0000   1.0000   1.0000   1.0000
     1.0000   1.0000   1.0000   1.0000   1.0000   1.0000   1.0000   1.0000
     1.0000   1.0000   1.0000   1.0000   1.0000   1.0000   1.0000   1.0000
     1.0000   1.0000   1.0000   1.0000   1.0000   1.0000   1.0000   1.0000
     1.0000   1.0000   1.0000   1.0000   1.0000   1.0000   1.0000   1.0000
     1.0000   1.0000   1.0000   1.0000   1.0000   1.0000   1.0000   1.0000
     1.0000   1.0000   1.0000   1.0000   1.0000   1.0000   1.0000   1.0000
     1.0000   1.0000   1.0000   1.0000   0.9375   0.9142   0.0000   0.0000
     0.0000   0.0000   0.0000   0.0000   0.0000   0.0000   0.0000   0.0000
     0.0000   0.0000   0.0000   0.0000   0.0000

          k = 0.4000 0.0000 0.0000 ( 10072 PWs)   bands (ev):

   -48.9168 -48.9162 -48.9154 -48.9147 -23.2453 -23.2396 -23.2091 -23.2043
   -23.2004 -23.2003 -23.1851 -23.1801 -23.1764 -23.1763 -23.1591 -23.1571
   -22.1160 -22.1053 -22.0993 -22.0936  -6.6857  -6.5854  -6.5039  -6.0192
    -5.9318  -5.9062  -5.8431  -5.7728  -5.7478  -5.5500  -5.5316  -5.5268
    -4.3052  -4.2176  -4.1271  -4.1004  -4.0526  -4.0213  -3.9585  -3.9353
    -3.9080  -3.8793  -3.8236  -3.8138   5.2570   5.2623   6.0604   6.0979
     6.1241   6.1484   6.2648   6.3966   6.4605   6.5041   6.7771   6.8230
     6.8636   6.9622   7.0147   7.0645   7.4332   7.5882   7.6209   7.6461
     7.8681   8.1833   8.4638   8.6802   8.8023   8.9601   8.9683   9.1416
     9.2203   9.2574   9.3837   9.4811   9.5625   9.7104   9.7218   9.9502
    12.6656  12.8715  13.2066  13.4341  13.4821  13.6596  14.1380  14.4106
    14.5411  14.5690  14.8647  14.9159  16.0802  16.4218  16.7778  16.8552
    17.3464  17.5342  17.6227  17.9147  18.0217

     occupation numbers 
     1.0000   1.0000   1.0000   1.0000   1.0000   1.0000   1.0000   1.0000
     1.0000   1.0000   1.0000   1.0000   1.0000   1.0000   1.0000   1.0000
[...]
     7.8092   8.3722   8.4794   8.6620   8.8188   8.8439   8.9763   9.0393
     9.0550   9.0731   9.2709   9.3098   9.3880   9.4012   9.8240  10.0645
    12.3451  12.9874  13.5775  13.5847  13.6859  14.1948  14.2165  14.3106
    14.4394  14.4813  14.5687  14.9631  16.1312  16.6808  16.9570  17.0595
    17.0810  17.4917  17.6287  17.7455  17.8912

     occupation numbers 
     1.0000   1.0000   1.0000   1.0000   1.0000   1.0000   1.0000   1.0000
     1.0000   1.0000   1.0000   1.0000   1.0000   1.0000   1.0000   1.0000
     1.0000   1.0000   1.0000   1.0000   1.0000   1.0000   1.0000   1.0000
     1.0000   1.0000   1.0000   1.0000   1.0000   1.0000   1.0000   1.0000
     1.0000   1.0000   1.0000   1.0000   1.0000   1.0000   1.0000   1.0000
     1.0000   1.0000   1.0000   1.0000   1.0000   1.0000   1.0000   1.0000
     1.0000   1.0000   1.0000   1.0000   1.0000   1.0000   1.0000   1.0000
     1.0000   1.0000   1.0000   1.0000   1.0000   1.0000   1.0000   1.0000
     1.0000   1.0000   1.0000   1.0000   1.0000   1.0000   1.0000   1.0000
     1.0000   1.0000   1.0000   1.0000   1.0000   1.0000   1.0000   1.0000
     1.0000   1.0000   0.9271   0.8995   0.0591   0.0000   0.0000   0.0000
     0.0000   0.0000   0.0000   0.0000   0.0000   0.0000   0.0000   0.0000
     0.0000   0.0000   0.0000   0.0000   0.0000

          k =-0.4000-0.2000-0.1414 ( 10093 PWs)   bands (ev):

   -48.9166 -48.9161 -48.9156 -48.9149 -23.2360 -23.2316 -23.2311 -23.2227
   -23.2119 -23.2035 -23.1780 -23.1747 -23.1671 -23.1652 -23.1582 -23.1552
   -22.1113 -22.1030 -22.1011 -22.0960  -6.7544  -6.6642  -6.4705  -6.1148
    -5.9673  -5.8722  -5.7857  -5.7032  -5.6610  -5.6499  -5.5969  -5.5714
    -4.2111  -4.1507  -4.1407  -4.1340  -4.0599  -3.9748  -3.9536  -3.8993
    -3.8716  -3.8152  -3.7924  -3.7650   5.4270   5.5054   5.5183   5.6306
     5.8691   5.9705   6.1807   6.2732   6.4480   6.7335   6.8097   7.0801
     7.1267   7.1550   7.1901   7.2814   7.4351   7.4506   7.4872   7.7408
     7.8092   8.3722   8.4794   8.6620   8.8188   8.8439   8.9763   9.0393
     9.0550   9.0731   9.2709   9.3098   9.3880   9.4012   9.8240  10.0645
    12.3451  12.9874  13.5775  13.5847  13.6859  14.1948  14.2165  14.3106
    14.4394  14.4813  14.5687  14.9631  16.1312  16.6808  16.9570  17.0595
    17.0810  17.4917  17.6287  17.7456  17.8911

     occupation numbers 
     1.0000   1.0000   1.0000   1.0000   1.0000   1.0000   1.0000   1.0000
     1.0000   1.0000   1.0000   1.0000   1.0000   1.0000   1.0000   1.0000
     1.0000   1.0000   1.0000   1.0000   1.0000   1.0000   1.0000   1.0000
     1.0000   1.0000   1.0000   1.0000   1.0000   1.0000   1.0000   1.0000
     1.0000   1.0000   1.0000   1.0000   1.0000   1.0000   1.0000   1.0000
     1.0000   1.0000   1.0000   1.0000   1.0000   1.0000   1.0000   1.0000
     1.0000   1.0000   1.0000   1.0000   1.0000   1.0000   1.0000   1.0000
     1.0000   1.0000   1.0000   1.0000   1.0000   1.0000   1.0000   1.0000
     1.0000   1.0000   1.0000   1.0000   1.0000   1.0000   1.0000   1.0000
     1.0000   1.0000   1.0000   1.0000   1.0000   1.0000   1.0000   1.0000
     1.0000   1.0000   0.9271   0.8995   0.0591   0.0000   0.0000   0.0000
     0.0000   0.0000   0.0000   0.0000   0.0000   0.0000   0.0000   0.0000
     0.0000   0.0000   0.0000   0.0000   0.0000

          k =-0.2000 0.4000-0.1414 ( 10093 PWs)   bands (ev):

   -48.9166 -48.9161 -48.9156 -48.9149 -23.2360 -23.2316 -23.2311 -23.2227
   -23.2120 -23.2035 -23.1780 -23.1747 -23.1671 -23.1652 -23.1582 -23.1552
   -22.1113 -22.1030 -22.1011 -22.0960  -6.7551  -6.6650  -6.4709  -6.1154
    -5.9667  -5.8708  -5.7857  -5.7089  -5.6538  -5.6515  -5.5965  -5.5692
    -4.2133  -4.1515  -4.1406  -4.1363  -4.0646  -3.9714  -3.9568  -3.8954
    -3.8696  -3.8146  -3.7912  -3.7645   5.4271   5.5055   5.5181   5.6303
     5.8686   5.9698   6.1804   6.2730   6.4480   6.7329   6.8091   7.0792
     7.1259   7.1547   7.1885   7.2818   7.4287   7.4563   7.4867   7.7396
     7.8089   8.3718   8.4816   8.6623   8.8174   8.8424   8.9788   9.0423
     9.0582   9.0731   9.2638   9.3169   9.3892   9.4012   9.8253  10.0661
    12.3447  12.9872  13.5773  13.5838  13.6863  14.1935  14.2161  14.3103
    14.4400  14.4804  14.5687  14.9627  16.1319  16.6814  16.9579  17.0572
    17.0825  17.4908  17.6272  17.7405  17.8899

     occupation numbers 
     1.0000   1.0000   1.0000   1.0000   1.0000   1.0000   1.0000   1.0000
     1.0000   1.0000   1.0000   1.0000   1.0000   1.0000   1.0000   1.0000
     1.0000   1.0000   1.0000   1.0000   1.0000   1.0000   1.0000   1.0000
     1.0000   1.0000   1.0000   1.0000   1.0000   1.0000   1.0000   1.0000
     1.0000   1.0000   1.0000   1.0000   1.0000   1.0000   1.0000   1.0000
     1.0000   1.0000   1.0000   1.0000   1.0000   1.0000   1.0000   1.0000
     1.0000   1.0000   1.0000   1.0000   1.0000   1.0000   1.0000   1.0000
     1.0000   1.0000   1.0000   1.0000   1.0000   1.0000   1.0000   1.0000
     1.0000   1.0000   1.0000   1.0000   1.0000   1.0000   1.0000   1.0000
     1.0000   1.0000   1.0000   1.0000   1.0000   1.0000   1.0000   1.0000
     1.0000   1.0000   0.9280   0.9037   0.0582   0.0000   0.0000   0.0000
     0.0000   0.0000   0.0000   0.0000   0.0000   0.0000   0.0000   0.0000
     0.0000   0.0000   0.0000   0.0000   0.0000

          k = 0.4000 0.2000-0.2828 ( 10093 PWs)   bands (ev):

   -48.9164 -48.9159 -48.9158 -48.9152 -23.2286 -23.2254 -23.2155 -23.2113
   -23.2095 -23.2055 -23.1884 -23.1859 -23.1770 -23.1757 -23.1573 -23.1561
   -22.1081 -22.1042 -22.1009 -22.0982  -6.6305  -6.5176  -6.4946  -6.2836
    -5.8969  -5.8209  -5.7898  -5.7482  -5.7391  -5.7006  -5.6168  -5.5974
    -4.2156  -4.2022  -4.1391  -4.1319  -4.0102  -3.9763  -3.9619  -3.9442
    -3.8268  -3.8124  -3.7990  -3.7965   5.5109   5.5159   6.0355   6.0929
     6.1245   6.1589   6.2932   6.3337   6.5225   6.6792   6.7491   6.8395
     6.9254   7.0099   7.0774   7.2030   7.2167   7.3161   7.4323   7.5180
     7.6448   7.8477   8.3425   8.4331   8.9167   8.9823   9.0166   9.1005
     9.1499   9.2398   9.2411   9.3586   9.4333   9.5094   9.7085   9.8413
    12.9372  13.4083  13.5783  13.6243  13.7293  13.7774  13.9651  14.1562
    14.3422  14.3619  14.4181  14.6350  16.6506  16.8778  17.3455  17.4894
    17.5103  17.7161  17.7813  17.8061  17.9259

     occupation numbers 
     1.0000   1.0000   1.0000   1.0000   1.0000   1.0000   1.0000   1.0000
     1.0000   1.0000   1.0000   1.0000   1.0000   1.0000   1.0000   1.0000
     1.0000   1.0000   1.0000   1.0000   1.0000   1.0000   1.0000   1.0000
     1.0000   1.0000   1.0000   1.0000   1.0000   1.0000   1.0000   1.0000
     1.0000   1.0000   1.0000   1.0000   1.0000   1.0000   1.0000   1.0000
     1.0000   1.0000   1.0000   1.0000   1.0000   1.0000   1.0000   1.0000
     1.0000   1.0000   1.0000   1.0000   1.0000   1.0000   1.0000   1.0000
     1.0000   1.0000   1.0000   1.0000   1.0000   1.0000   1.0000   1.0000
     1.0000   1.0000   1.0000   1.0000   1.0000   1.0000   1.0000   1.0000
     1.0000   1.0000   1.0000   1.0000   1.0000   1.0000   1.0000   1.0000
     1.0000   1.0000   0.9246   0.5626   0.0074   0.0007   0.0000   0.0000
     0.0000   0.0000   0.0000   0.0000   0.0000   0.0000   0.0000   0.0000
     0.0000   0.0000   0.0000   0.0000   0.0000

          k =-0.4000-0.2000-0.2828 ( 10093 PWs)   bands (ev):

   -48.9164 -48.9159 -48.9158 -48.9152 -23.2286 -23.2254 -23.2155 -23.2113
   -23.2095 -23.2055 -23.1884 -23.1859 -23.1770 -23.1757 -23.1573 -23.1561
   -22.1081 -22.1042 -22.1009 -22.0982  -6.6305  -6.5176  -6.4946  -6.2836
    -5.8969  -5.8209  -5.7898  -5.7482  -5.7391  -5.7006  -5.6168  -5.5974
    -4.2156  -4.2022  -4.1391  -4.1319  -4.0102  -3.9763  -3.9619  -3.9442
    -3.8268  -3.8124  -3.7990  -3.7965   5.5109   5.5159   6.0355   6.0929
     6.1245   6.1589   6.2932   6.3337   6.5225   6.6792   6.7491   6.8395
     6.9254   7.0099   7.0774   7.2030   7.2167   7.3161   7.4323   7.5180
     7.6448   7.8477   8.3425   8.4331   8.9167   8.9823   9.0166   9.1005
     9.1499   9.2398   9.2411   9.3586   9.4333   9.5094   9.7085   9.8413
    12.9372  13.4083  13.5783  13.6243  13.7293  13.7774  13.9651  14.1562
    14.3422  14.3619  14.4181  14.6350  16.6506  16.8778  17.3455  17.4894
    17.5103  17.7161  17.7813  17.8060  17.9255

     occupation numbers 
     1.0000   1.0000   1.0000   1.0000   1.0000   1.0000   1.0000   1.0000
     1.0000   1.0000   1.0000   1.0000   1.0000   1.0000   1.0000   1.0000
     1.0000   1.0000   1.0000   1.0000   1.0000   1.0000   1.0000   1.0000
     1.0000   1.0000   1.0000   1.0000   1.0000   1.0000   1.0000   1.0000
     1.0000   1.0000   1.0000   1.0000   1.0000   1.0000   1.0000   1.0000
     1.0000   1.0000   1.0000   1.0000   1.0000   1.0000   1.0000   1.0000
     1.0000   1.0000   1.0000   1.0000   1.0000   1.0000   1.0000   1.0000
     1.0000   1.0000   1.0000   1.0000   1.0000   1.0000   1.0000   1.0000
     1.0000   1.0000   1.0000   1.0000   1.0000   1.0000   1.0000   1.0000
     1.0000   1.0000   1.0000   1.0000   1.0000   1.0000   1.0000   1.0000
     1.0000   1.0000   0.9246   0.5626   0.0074   0.0007   0.0000   0.0000
     0.0000   0.0000   0.0000   0.0000   0.0000   0.0000   0.0000   0.0000
     0.0000   0.0000   0.0000   0.0000   0.0000

          k =-0.2000 0.4000-0.2828 ( 10093 PWs)   bands (ev):

   -48.9164 -48.9159 -48.9158 -48.9152 -23.2286 -23.2254 -23.2155 -23.2113
   -23.2095 -23.2055 -23.1884 -23.1859 -23.1769 -23.1757 -23.1573 -23.1561
   -22.1081 -22.1042 -22.1009 -22.0982  -6.6311  -6.5181  -6.4954  -6.2844
    -5.8969  -5.8210  -5.7889  -5.7507  -5.7392  -5.6968  -5.6158  -5.5958
    -4.2167  -4.2027  -4.1382  -4.1329  -4.0220  -3.9738  -3.9680  -3.9344
    -3.8252  -3.8111  -3.7977  -3.7951   5.5107   5.5157   6.0347   6.0920
     6.1246   6.1584   6.2935   6.3333   6.5222   6.6778   6.7492   6.8393
     6.9256   7.0094   7.0770   7.2030   7.2171   7.3163   7.4311   7.5164
     7.6447   7.8478   8.3404   8.4312   8.9184   8.9853   9.0182   9.1003
     9.1520   9.2396   9.2451   9.3543   9.4369   9.5097   9.7100   9.8428
    12.9367  13.4076  13.5782  13.6231  13.7292  13.7775  13.9654  14.1565
    14.3414  14.3607  14.4174  14.6342  16.6519  16.8792  17.3480  17.4872
    17.5151  17.7117  17.7783  17.8006  17.9153

     occupation numbers 
     1.0000   1.0000   1.0000   1.0000   1.0000   1.0000   1.0000   1.0000
     1.0000   1.0000   1.0000   1.0000   1.0000   1.0000   1.0000   1.0000
     1.0000   1.0000   1.0000   1.0000   1.0000   1.0000   1.0000   1.0000
     1.0000   1.0000   1.0000   1.0000   1.0000   1.0000   1.0000   1.0000
     1.0000   1.0000   1.0000   1.0000   1.0000   1.0000   1.0000   1.0000
     1.0000   1.0000   1.0000   1.0000   1.0000   1.0000   1.0000   1.0000
     1.0000   1.0000   1.0000   1.0000   1.0000   1.0000   1.0000   1.0000
     1.0000   1.0000   1.0000   1.0000   1.0000   1.0000   1.0000   1.0000
     1.0000   1.0000   1.0000   1.0000   1.0000   1.0000   1.0000   1.0000
     1.0000   1.0000   1.0000   1.0000   1.0000   1.0000   1.0000   1.0000
     1.0000   1.0000   0.9248   0.5770   0.0075   0.0007   0.0000   0.0000
     0.0000   0.0000   0.0000   0.0000   0.0000   0.0000   0.0000   0.0000
     0.0000   0.0000   0.0000   0.0000   0.0000

          k = 0.4000 0.4000-0.1414 ( 10091 PWs)   bands (ev):

   -48.9164 -48.9161 -48.9156 -48.9152 -23.2427 -23.2355 -23.2334 -23.2318
   -23.2316 -23.2244 -23.1664 -23.1656 -23.1567 -23.1540 -23.1491 -23.1466
   -22.1053 -22.1022 -22.1007 -22.0988  -6.8809  -6.8485  -6.3968  -6.2665
    -5.9787  -5.9420  -5.7772  -5.7264  -5.7024  -5.6884  -5.4514  -5.3987
    -4.1477  -4.1198  -4.1128  -4.0813  -4.0776  -4.0124  -3.8213  -3.8114
    -3.8102  -3.7763  -3.7094  -3.6944   5.2305   5.2726   5.4216   5.5275
     5.5679   5.5768   5.5897   5.6885   6.8750   7.0399   7.0777   7.0993
     7.2300   7.2620   7.2986   7.4933   7.5823   7.6514   7.6571   7.8070
     8.2232   8.3536   8.5686   8.6077   8.7407   8.7860   8.8063   8.8442
     8.9100   8.9333   8.9431   9.2056   9.2178   9.3419  10.0482  10.1187
    12.1511  12.4119  14.1389  14.1442  14.1534  14.2034  14.2600  14.3973
    14.4125  14.4753  14.8676  15.0421  15.7963  16.1264  16.6049  17.0233
    17.3962  17.4333  17.6729  17.7351  18.0142

     occupation numbers 
     1.0000   1.0000   1.0000   1.0000   1.0000   1.0000   1.0000   1.0000
     1.0000   1.0000   1.0000   1.0000   1.0000   1.0000   1.0000   1.0000
     1.0000   1.0000   1.0000   1.0000   1.0000   1.0000   1.0000   1.0000
     1.0000   1.0000   1.0000   1.0000   1.0000   1.0000   1.0000   1.0000
     1.0000   1.0000   1.0000   1.0000   1.0000   1.0000   1.0000   1.0000
     1.0000   1.0000   1.0000   1.0000   1.0000   1.0000   1.0000   1.0000
     1.0000   1.0000   1.0000   1.0000   1.0000   1.0000   1.0000   1.0000
     1.0000   1.0000   1.0000   1.0000   1.0000   1.0000   1.0000   1.0000
     1.0000   1.0000   1.0000   1.0000   1.0000   1.0000   1.0000   1.0000
     1.0000   1.0000   1.0000   1.0000   1.0000   1.0000   1.0000   1.0000
     1.0000   1.0000   0.0000   0.0000   0.0000   0.0000   0.0000   0.0000
     0.0000   0.0000   0.0000   0.0000   0.0000   0.0000   0.0000   0.0000
     0.0000   0.0000   0.0000   0.0000   0.0000

          k = 0.4000 0.4000-0.2828 ( 10112 PWs)   bands (ev):

   -48.9160 -48.9159 -48.9159 -48.9156 -23.2393 -23.2352 -23.2321 -23.2281
   -23.2127 -23.2115 -23.1871 -23.1862 -23.1559 -23.1549 -23.1483 -23.1474
   -22.1039 -22.1021 -22.1011 -22.0998  -6.7289  -6.6824  -6.5426  -6.4649
    -5.9023  -5.8610  -5.8183  -5.7711  -5.6595  -5.6048  -5.5589  -5.4943
    -4.1569  -4.1382  -4.1068  -4.0907  -3.9860  -3.9296  -3.8825  -3.8608
    -3.7966  -3.7770  -3.7483  -3.7474   5.2579   5.2669   5.5067   5.5195
     5.8900   5.9391   6.2359   6.2613   6.3592   6.4555   7.0499   7.0866
     7.0920   7.1334   7.2311   7.3521   7.4467   7.4594   7.4800   7.6560
     8.3651   8.4034   8.4896   8.5422   8.7189   8.7636   8.8114   8.8590
     8.8969   8.9515   9.0383   9.0814   9.3761   9.3911   9.8228   9.8517
    12.8345  13.0047  13.5841  13.6959  14.1586  14.1724  14.2694  14.4214
    14.4578  14.5114  14.5502  14.7528  16.2612  16.5135  16.6885  16.9730
    17.6575  17.9035  17.9199  17.9662  18.0526

     occupation numbers 
     1.0000   1.0000   1.0000   1.0000   1.0000   1.0000   1.0000   1.0000
     1.0000   1.0000   1.0000   1.0000   1.0000   1.0000   1.0000   1.0000
     1.0000   1.0000   1.0000   1.0000   1.0000   1.0000   1.0000   1.0000
     1.0000   1.0000   1.0000   1.0000   1.0000   1.0000   1.0000   1.0000
     1.0000   1.0000   1.0000   1.0000   1.0000   1.0000   1.0000   1.0000
     1.0000   1.0000   1.0000   1.0000   1.0000   1.0000   1.0000   1.0000
     1.0000   1.0000   1.0000   1.0000   1.0000   1.0000   1.0000   1.0000
     1.0000   1.0000   1.0000   1.0000   1.0000   1.0000   1.0000   1.0000
     1.0000   1.0000   1.0000   1.0000   1.0000   1.0000   1.0000   1.0000
     1.0000   1.0000   1.0000   1.0000   1.0000   1.0000   1.0000   1.0000
     1.0000   1.0000   0.9022   0.0372   0.0000   0.0000   0.0000   0.0000
     0.0000   0.0000   0.0000   0.0000   0.0000   0.0000   0.0000   0.0000
     0.0000   0.0000   0.0000   0.0000   0.0000

     the Fermi energy is    13.6294 ev

!    total energy              =   -2923.82753331 Ry
     total all-electron energy =    -59563.354235 Ry
     estimated scf accuracy    <          3.6E-10 Ry
     smearing contrib. (-TS)   =      -0.00116705 Ry
     internal energy E=F+TS    =   -2923.82636626 Ry

     The total energy is F=E-TS. E is the sum of the following terms:
     one-electron contribution =    -278.73150072 Ry
     hartree contribution      =     248.49873017 Ry
     xc contribution           =    -239.31170982 Ry
     ewald contribution        =    -935.74338334 Ry
     one-center paw contrib.   =   -1718.53850255 Ry
      -> PAW hartree energy AE =      35.00446531 Ry
      -> PAW hartree energy PS =     -34.80479858 Ry
      -> PAW xc energy AE      =    -201.60053911 Ry
      -> PAW xc energy PS      =      17.13176041 Ry
      -> total E_H with PAW    =     248.69839690 Ry
      -> total E_XC with PAW   =    -423.78048852 Ry

     convergence has been achieved in  24 iterations

     Writing all to output data dir ./out/smo.save/ :
     XML data file, charge density, pseudopotentials, collected wavefunctions

     init_run     :      2.39s CPU      2.70s WALL (       1 calls)
     electrons    :     70.39s CPU     80.99s WALL (       1 calls)

     Called by init_run:
     wfcinit      :      0.85s CPU      0.90s WALL (       1 calls)
     wfcinit:atom :      0.00s CPU      0.01s WALL (       1 calls)
     wfcinit:wfcr :      0.79s CPU      0.79s WALL (       1 calls)
     potinit      :      0.30s CPU      0.45s WALL (       1 calls)
     hinit0       :      1.11s CPU      1.16s WALL (       1 calls)

     Called by electrons:
     c_bands      :     54.90s CPU     63.43s WALL (      24 calls)
     sum_band     :      9.49s CPU     10.15s WALL (      24 calls)
     v_of_rho     :      2.27s CPU      2.35s WALL (      25 calls)
     v_h          :      0.99s CPU      1.03s WALL (      25 calls)
     v_xc         :      1.27s CPU      1.32s WALL (      25 calls)
     newd         :      0.85s CPU      0.99s WALL (      25 calls)
     PAW_pot      :      0.70s CPU      1.04s WALL (      25 calls)
     mix_rho      :      0.62s CPU      0.69s WALL (      24 calls)

     Called by c_bands:
     init_us_2    :      1.03s CPU      1.07s WALL (      49 calls)
     cegterg      :     51.35s CPU     51.89s WALL (      24 calls)

     Called by sum_band:
     sum_band:wei :      0.03s CPU      0.10s WALL (      24 calls)
     sum_band:loo :      6.59s CPU      6.63s WALL (      24 calls)
     sum_band:buf :      0.00s CPU      0.00s WALL (      24 calls)
     sum_band:ini :      0.55s CPU      0.56s WALL (      24 calls)
     sum_band:cal :      1.39s CPU      1.40s WALL (      24 calls)
     sum_band:bec :      0.00s CPU      0.00s WALL (      24 calls)
     addusdens    :      0.86s CPU      1.08s WALL (      24 calls)
                                        0.00s GPU  (      24 calls)
     addusd:skk   :      0.01s CPU      0.01s WALL (      72 calls)
                                        0.00s GPU  (      72 calls)

     Called by *egterg:
     cdiaghg      :      1.57s CPU      1.58s WALL (     132 calls)
     cegterg:over :      3.97s CPU      4.00s WALL (     108 calls)
     cegterg:upda :      2.74s CPU      2.78s WALL (     108 calls)
     cegterg:last :      5.86s CPU      5.92s WALL (      51 calls)
     h_psi        :     32.12s CPU     32.40s WALL (     133 calls)
     s_psi        :      4.09s CPU      4.11s WALL (     133 calls)
     g_psi        :      0.10s CPU      0.10s WALL (     108 calls)

     Called by h_psi:
     h_psi:calbec :      3.85s CPU      3.88s WALL (     133 calls)
     vloc_psi     :     23.78s CPU     23.92s WALL (     133 calls)
                                        0.00s GPU  (     133 calls)
     add_vuspsi   :      4.34s CPU      4.35s WALL (     133 calls)

     General routines
     calbec       :      5.24s CPU      5.28s WALL (     157 calls)
     fft          :      1.57s CPU      1.60s WALL (     148 calls)
     ffts         :      0.11s CPU      0.11s WALL (      49 calls)
     fftw         :     26.09s CPU     26.24s WALL (   14898 calls)
     interpolate  :      0.65s CPU      0.66s WALL (      25 calls)

     Parallel routines

     PAW routines
     PAW_pot      :      0.70s CPU      1.04s WALL (      25 calls)
     PAW_symme    :      0.03s CPU      0.05s WALL (      49 calls)

     PWSCF        :   1m13.15s CPU   1m26.78s WALL


   This run was terminated on:  20:36:18  29Nov2025            

=------------------------------------------------------------------------------=
   JOB DONE.
=------------------------------------------------------------------------------=
