# File written on 29Nov2025 at 20:39:29 

calc_only_A  :  F

begin real_lattice
   5.6139600   0.0000000   0.0000000
   0.0000000   5.6139600   0.0000000
   0.0000000   0.0000000   7.9393400
end real_lattice

begin recip_lattice
   1.1192074   0.0000000   0.0000000
   0.0000000   1.1192074   0.0000000
   0.0000000   0.0000000   0.7913989
end recip_lattice

begin kpoints
   125
    0.00000000    0.00000000    0.00000000
    0.00000000    0.00000000    0.20000000
    0.00000000    0.00000000    0.40000000
    0.00000000    0.00000000    0.60000000
    0.00000000    0.00000000    0.80000000
    0.00000000    0.20000000    0.00000000
    0.00000000    0.20000000    0.20000000
    0.00000000    0.20000000    0.40000000
    0.00000000    0.20000000    0.60000000
    0.00000000    0.20000000    0.80000000
    0.00000000    0.40000000    0.00000000
    0.00000000    0.40000000    0.20000000
    0.00000000    0.40000000    0.40000000
    0.00000000    0.40000000    0.60000000
    0.00000000    0.40000000    0.80000000
    0.00000000    0.60000000    0.00000000
    0.00000000    0.60000000    0.20000000
    0.00000000    0.60000000    0.40000000
    0.00000000    0.60000000    0.60000000
    0.00000000    0.60000000    0.80000000
    0.00000000    0.80000000    0.00000000
    0.00000000    0.80000000    0.20000000
    0.00000000    0.80000000    0.40000000
    0.00000000    0.80000000    0.60000000
    0.00000000    0.80000000    0.80000000
    0.20000000    0.00000000    0.00000000
    0.20000000    0.00000000    0.20000000
    0.20000000    0.00000000    0.40000000
    0.20000000    0.00000000    0.60000000
    0.20000000    0.00000000    0.80000000
    0.20000000    0.20000000    0.00000000
    0.20000000    0.20000000    0.20000000
    0.20000000    0.20000000    0.40000000
    0.20000000    0.20000000    0.60000000
    0.20000000    0.20000000    0.80000000
    0.20000000    0.40000000    0.00000000
    0.20000000    0.40000000    0.20000000
    0.20000000    0.40000000    0.40000000
    0.20000000    0.40000000    0.60000000
    0.20000000    0.40000000    0.80000000
    0.20000000    0.60000000    0.00000000
    0.20000000    0.60000000    0.20000000
    0.20000000    0.60000000    0.40000000
    0.20000000    0.60000000    0.60000000
    0.20000000    0.60000000    0.80000000
    0.20000000    0.80000000    0.00000000
    0.20000000    0.80000000    0.20000000
    0.20000000    0.80000000    0.40000000
    0.20000000    0.80000000    0.60000000
    0.20000000    0.80000000    0.80000000
    0.40000000    0.00000000    0.00000000
    0.40000000    0.00000000    0.20000000
    0.40000000    0.00000000    0.40000000
    0.40000000    0.00000000    0.60000000
    0.40000000    0.00000000    0.80000000
    0.40000000    0.20000000    0.00000000
    0.40000000    0.20000000    0.20000000
    0.40000000    0.20000000    0.40000000
    0.40000000    0.20000000    0.60000000
    0.40000000    0.20000000    0.80000000
    0.40000000    0.40000000    0.00000000
    0.40000000    0.40000000    0.20000000
    0.40000000    0.40000000    0.40000000
    0.40000000    0.40000000    0.60000000
    0.40000000    0.40000000    0.80000000
    0.40000000    0.60000000    0.00000000
    0.40000000    0.60000000    0.20000000
    0.40000000    0.60000000    0.40000000
    0.40000000    0.60000000    0.60000000
    0.40000000    0.60000000    0.80000000
    0.40000000    0.80000000    0.00000000
    0.40000000    0.80000000    0.20000000
    0.40000000    0.80000000    0.40000000
    0.40000000    0.80000000    0.60000000
    0.40000000    0.80000000    0.80000000
    0.60000000    0.00000000    0.00000000
    0.60000000    0.00000000    0.20000000
    0.60000000    0.00000000    0.40000000
    0.60000000    0.00000000    0.60000000
    0.60000000    0.00000000    0.80000000
    0.60000000    0.20000000    0.00000000
    0.60000000    0.20000000    0.20000000
    0.60000000    0.20000000    0.40000000
    0.60000000    0.20000000    0.60000000
    0.60000000    0.20000000    0.80000000
    0.60000000    0.40000000    0.00000000
    0.60000000    0.40000000    0.20000000
    0.60000000    0.40000000    0.40000000
    0.60000000    0.40000000    0.60000000
    0.60000000    0.40000000    0.80000000
    0.60000000    0.60000000    0.00000000
    0.60000000    0.60000000    0.20000000
    0.60000000    0.60000000    0.40000000
    0.60000000    0.60000000    0.60000000
    0.60000000    0.60000000    0.80000000
    0.60000000    0.80000000    0.00000000
    0.60000000    0.80000000    0.20000000
    0.60000000    0.80000000    0.40000000
    0.60000000    0.80000000    0.60000000
    0.60000000    0.80000000    0.80000000
    0.80000000    0.00000000    0.00000000
    0.80000000    0.00000000    0.20000000
    0.80000000    0.00000000    0.40000000
    0.80000000    0.00000000    0.60000000
    0.80000000    0.00000000    0.80000000
    0.80000000    0.20000000    0.00000000
    0.80000000    0.20000000    0.20000000
    0.80000000    0.20000000    0.40000000
    0.80000000    0.20000000    0.60000000
    0.80000000    0.20000000    0.80000000
    0.80000000    0.40000000    0.00000000
    0.80000000    0.40000000    0.20000000
    0.80000000    0.40000000    0.40000000
    0.80000000    0.40000000    0.60000000
    0.80000000    0.40000000    0.80000000
    0.80000000    0.60000000    0.00000000
    0.80000000    0.60000000    0.20000000
    0.80000000    0.60000000    0.40000000
    0.80000000    0.60000000    0.60000000
    0.80000000    0.60000000    0.80000000
    0.80000000    0.80000000    0.00000000
    0.80000000    0.80000000    0.20000000
    0.80000000    0.80000000    0.40000000
    0.80000000    0.80000000    0.60000000
    0.80000000    0.80000000    0.80000000
end kpoints

begin projections
    56
   0.00000    0.00000    0.00000     2  2  1
    0.0000000  0.0000000  1.0000000   0.7071068  0.7071068  0.0000000    1.00
   0.00000    0.00000    0.00000     2  3  1
    0.0000000  0.0000000  1.0000000   0.7071068  0.7071068  0.0000000    1.00
   0.00000    0.00000    0.00000     2  5  1
    0.0000000  0.0000000  1.0000000   0.7071068  0.7071068  0.0000000    1.00
   0.00000    0.00000    0.50000     2  2  1
    0.0000000  0.0000000  1.0000000   0.7071068  0.7071068  0.0000000    1.00
   0.00000    0.00000    0.50000     2  3  1
    0.0000000  0.0000000  1.0000000   0.7071068  0.7071068  0.0000000    1.00
   0.00000    0.00000    0.50000     2  5  1
    0.0000000  0.0000000  1.0000000   0.7071068  0.7071068  0.0000000    1.00
   0.50000    0.50000    0.50000     2  2  1
    0.0000000  0.0000000  1.0000000   0.7071068  0.7071068  0.0000000    1.00
   0.50000    0.50000    0.50000     2  3  1
    0.0000000  0.0000000  1.0000000   0.7071068  0.7071068  0.0000000    1.00
   0.50000    0.50000    0.50000     2  5  1
    0.0000000  0.0000000  1.0000000   0.7071068  0.7071068  0.0000000    1.00
   0.50000    0.50000    0.00000     2  2  1
    0.0000000  0.0000000  1.0000000   0.7071068  0.7071068  0.0000000    1.00
   0.50000    0.50000    0.00000     2  3  1
    0.0000000  0.0000000  1.0000000   0.7071068  0.7071068  0.0000000    1.00
   0.50000    0.50000    0.00000     2  5  1
    0.0000000  0.0000000  1.0000000   0.7071068  0.7071068  0.0000000    1.00
   0.00000    0.00000    0.00000     2  1  1
    0.0000000  0.0000000  1.0000000   0.7071068  0.7071068  0.0000000    1.00
   0.00000    0.00000    0.00000     2  4  1
    0.0000000  0.0000000  1.0000000   0.7071068  0.7071068  0.0000000    1.00
   0.00000    0.00000    0.50000     2  1  1
    0.0000000  0.0000000  1.0000000   0.7071068  0.7071068  0.0000000    1.00
   0.00000    0.00000    0.50000     2  4  1
    0.0000000  0.0000000  1.0000000   0.7071068  0.7071068  0.0000000    1.00
   0.50000    0.50000    0.50000     2  1  1
    0.0000000  0.0000000  1.0000000   0.7071068  0.7071068  0.0000000    1.00
   0.50000    0.50000    0.50000     2  4  1
    0.0000000  0.0000000  1.0000000   0.7071068  0.7071068  0.0000000    1.00
   0.50000    0.50000    0.00000     2  1  1
    0.0000000  0.0000000  1.0000000   0.7071068  0.7071068  0.0000000    1.00
   0.50000    0.50000    0.00000     2  4  1
    0.0000000  0.0000000  1.0000000   0.7071068  0.7071068  0.0000000    1.00
   0.25000    0.75000    0.00445     1  1  1
    0.0000000  0.0000000  1.0000000   1.0000000  0.0000000  0.0000000    1.00
   0.25000    0.75000    0.00445     1  2  1
    0.0000000  0.0000000  1.0000000   1.0000000  0.0000000  0.0000000    1.00
   0.25000    0.75000    0.00445     1  3  1
    0.0000000  0.0000000  1.0000000   1.0000000  0.0000000  0.0000000    1.00
   0.25000    0.25000   -0.00445     1  1  1
    0.0000000  0.0000000  1.0000000   1.0000000  0.0000000  0.0000000    1.00
   0.25000    0.25000   -0.00445     1  2  1
    0.0000000  0.0000000  1.0000000   1.0000000  0.0000000  0.0000000    1.00
   0.25000    0.25000   -0.00445     1  3  1
    0.0000000  0.0000000  1.0000000   1.0000000  0.0000000  0.0000000    1.00
   0.75000    0.25000    0.50445     1  1  1
    0.0000000  0.0000000  1.0000000   1.0000000  0.0000000  0.0000000    1.00
   0.75000    0.25000    0.50445     1  2  1
    0.0000000  0.0000000  1.0000000   1.0000000  0.0000000  0.0000000    1.00
   0.75000    0.25000    0.50445     1  3  1
    0.0000000  0.0000000  1.0000000   1.0000000  0.0000000  0.0000000    1.00
   0.75000    0.75000    0.49555     1  1  1
    0.0000000  0.0000000  1.0000000   1.0000000  0.0000000  0.0000000    1.00
   0.75000    0.75000    0.49555     1  2  1
    0.0000000  0.0000000  1.0000000   1.0000000  0.0000000  0.0000000    1.00
   0.75000    0.75000    0.49555     1  3  1
    0.0000000  0.0000000  1.0000000   1.0000000  0.0000000  0.0000000    1.00
   0.75000    0.25000   -0.00445     1  1  1
    0.0000000  0.0000000  1.0000000   1.0000000  0.0000000  0.0000000    1.00
   0.75000    0.25000   -0.00445     1  2  1
    0.0000000  0.0000000  1.0000000   1.0000000  0.0000000  0.0000000    1.00
   0.75000    0.25000   -0.00445     1  3  1
    0.0000000  0.0000000  1.0000000   1.0000000  0.0000000  0.0000000    1.00
   0.75000    0.75000    0.00445     1  1  1
    0.0000000  0.0000000  1.0000000   1.0000000  0.0000000  0.0000000    1.00
   0.75000    0.75000    0.00445     1  2  1
    0.0000000  0.0000000  1.0000000   1.0000000  0.0000000  0.0000000    1.00
   0.75000    0.75000    0.00445     1  3  1
    0.0000000  0.0000000  1.0000000   1.0000000  0.0000000  0.0000000    1.00
   0.25000    0.75000    0.49555     1  1  1
    0.0000000  0.0000000  1.0000000   1.0000000  0.0000000  0.0000000    1.00
   0.25000    0.75000    0.49555     1  2  1
    0.0000000  0.0000000  1.0000000   1.0000000  0.0000000  0.0000000    1.00
   0.25000    0.75000    0.49555     1  3  1
    0.0000000  0.0000000  1.0000000   1.0000000  0.0000000  0.0000000    1.00
   0.25000    0.25000    0.50445     1  1  1
    0.0000000  0.0000000  1.0000000   1.0000000  0.0000000  0.0000000    1.00
   0.25000    0.25000    0.50445     1  2  1
    0.0000000  0.0000000  1.0000000   1.0000000  0.0000000  0.0000000    1.00
   0.25000    0.25000    0.50445     1  3  1
    0.0000000  0.0000000  1.0000000   1.0000000  0.0000000  0.0000000    1.00
   0.00000    0.00891    0.25000     1  1  1
    0.0000000  0.0000000  1.0000000   1.0000000  0.0000000  0.0000000    1.00
   0.00000    0.00891    0.25000     1  2  1
    0.0000000  0.0000000  1.0000000   1.0000000  0.0000000  0.0000000    1.00
   0.00000    0.00891    0.25000     1  3  1
    0.0000000  0.0000000  1.0000000   1.0000000  0.0000000  0.0000000    1.00
   0.00000   -0.00891    0.75000     1  1  1
    0.0000000  0.0000000  1.0000000   1.0000000  0.0000000  0.0000000    1.00
   0.00000   -0.00891    0.75000     1  2  1
    0.0000000  0.0000000  1.0000000   1.0000000  0.0000000  0.0000000    1.00
   0.00000   -0.00891    0.75000     1  3  1
    0.0000000  0.0000000  1.0000000   1.0000000  0.0000000  0.0000000    1.00
   0.50000    0.50891    0.75000     1  1  1
    0.0000000  0.0000000  1.0000000   1.0000000  0.0000000  0.0000000    1.00
   0.50000    0.50891    0.75000     1  2  1
    0.0000000  0.0000000  1.0000000   1.0000000  0.0000000  0.0000000    1.00
   0.50000    0.50891    0.75000     1  3  1
    0.0000000  0.0000000  1.0000000   1.0000000  0.0000000  0.0000000    1.00
   0.50000    0.49109    0.25000     1  1  1
    0.0000000  0.0000000  1.0000000   1.0000000  0.0000000  0.0000000    1.00
   0.50000    0.49109    0.25000     1  2  1
    0.0000000  0.0000000  1.0000000   1.0000000  0.0000000  0.0000000    1.00
   0.50000    0.49109    0.25000     1  3  1
    0.0000000  0.0000000  1.0000000   1.0000000  0.0000000  0.0000000    1.00
end projections

begin nnkpts
   6
       1       2      0   0   0
       1       6      0   0   0
       1      26      0   0   0
       1       5      0   0  -1
       1      21      0  -1   0
       1     101     -1   0   0
       2       3      0   0   0
       2       7      0   0   0
       2      27      0   0   0
       2       1      0   0   0
       2      22      0  -1   0
       2     102     -1   0   0
       3       4      0   0   0
       3       8      0   0   0
       3      28      0   0   0
       3       2      0   0   0
       3      23      0  -1   0
       3     103     -1   0   0
       4       5      0   0   0
       4       9      0   0   0
       4      29      0   0   0
       4       3      0   0   0
       4      24      0  -1   0
       4     104     -1   0   0
       5       1      0   0   1
       5      10      0   0   0
       5      30      0   0   0
       5       4      0   0   0
       5      25      0  -1   0
       5     105     -1   0   0
       6       7      0   0   0
       6      11      0   0   0
       6      31      0   0   0
       6      10      0   0  -1
       6       1      0   0   0
       6     106     -1   0   0
       7       8      0   0   0
       7      12      0   0   0
       7      32      0   0   0
       7       6      0   0   0
       7       2      0   0   0
       7     107     -1   0   0
       8       9      0   0   0
       8      13      0   0   0
       8      33      0   0   0
       8       7      0   0   0
       8       3      0   0   0
       8     108     -1   0   0
       9      10      0   0   0
       9      14      0   0   0
       9      34      0   0   0
       9       8      0   0   0
       9       4      0   0   0
       9     109     -1   0   0
      10       6      0   0   1
      10      15      0   0   0
      10      35      0   0   0
      10       9      0   0   0
      10       5      0   0   0
      10     110     -1   0   0
      11      12      0   0   0
      11      16      0   0   0
      11      36      0   0   0
      11      15      0   0  -1
      11       6      0   0   0
      11     111     -1   0   0
      12      13      0   0   0
      12      17      0   0   0
      12      37      0   0   0
      12      11      0   0   0
      12       7      0   0   0
      12     112     -1   0   0
      13      14      0   0   0
      13      18      0   0   0
      13      38      0   0   0
      13      12      0   0   0
      13       8      0   0   0
      13     113     -1   0   0
      14      15      0   0   0
      14      19      0   0   0
      14      39      0   0   0
      14      13      0   0   0
      14       9      0   0   0
      14     114     -1   0   0
      15      11      0   0   1
      15      20      0   0   0
      15      40      0   0   0
      15      14      0   0   0
      15      10      0   0   0
      15     115     -1   0   0
      16      17      0   0   0
      16      21      0   0   0
      16      41      0   0   0
      16      20      0   0  -1
      16      11      0   0   0
      16     116     -1   0   0
      17      18      0   0   0
      17      22      0   0   0
      17      42      0   0   0
      17      16      0   0   0
      17      12      0   0   0
      17     117     -1   0   0
      18      19      0   0   0
      18      23      0   0   0
      18      43      0   0   0
      18      17      0   0   0
      18      13      0   0   0
      18     118     -1   0   0
      19      20      0   0   0
      19      24      0   0   0
      19      44      0   0   0
      19      18      0   0   0
      19      14      0   0   0
      19     119     -1   0   0
      20      16      0   0   1
      20      25      0   0   0
      20      45      0   0   0
      20      19      0   0   0
      20      15      0   0   0
      20     120     -1   0   0
      21      22      0   0   0
      21       1      0   1   0
      21      46      0   0   0
      21      25      0   0  -1
      21      16      0   0   0
      21     121     -1   0   0
      22      23      0   0   0
      22       2      0   1   0
      22      47      0   0   0
      22      21      0   0   0
      22      17      0   0   0
      22     122     -1   0   0
      23      24      0   0   0
      23       3      0   1   0
      23      48      0   0   0
      23      22      0   0   0
      23      18      0   0   0
      23     123     -1   0   0
      24      25      0   0   0
      24       4      0   1   0
      24      49      0   0   0
      24      23      0   0   0
      24      19      0   0   0
      24     124     -1   0   0
      25      21      0   0   1
      25       5      0   1   0
      25      50      0   0   0
      25      24      0   0   0
      25      20      0   0   0
      25     125     -1   0   0
      26      27      0   0   0
      26      31      0   0   0
      26      51      0   0   0
      26      30      0   0  -1
      26      46      0  -1   0
      26       1      0   0   0
      27      28      0   0   0
      27      32      0   0   0
      27      52      0   0   0
      27      26      0   0   0
      27      47      0  -1   0
      27       2      0   0   0
      28      29      0   0   0
      28      33      0   0   0
      28      53      0   0   0
      28      27      0   0   0
      28      48      0  -1   0
      28       3      0   0   0
      29      30      0   0   0
      29      34      0   0   0
      29      54      0   0   0
      29      28      0   0   0
      29      49      0  -1   0
      29       4      0   0   0
      30      26      0   0   1
      30      35      0   0   0
      30      55      0   0   0
      30      29      0   0   0
      30      50      0  -1   0
      30       5      0   0   0
      31      32      0   0   0
      31      36      0   0   0
      31      56      0   0   0
      31      35      0   0  -1
      31      26      0   0   0
      31       6      0   0   0
      32      33      0   0   0
      32      37      0   0   0
      32      57      0   0   0
      32      31      0   0   0
      32      27      0   0   0
      32       7      0   0   0
      33      34      0   0   0
      33      38      0   0   0
      33      58      0   0   0
      33      32      0   0   0
      33      28      0   0   0
      33       8      0   0   0
      34      35      0   0   0
      34      39      0   0   0
      34      59      0   0   0
      34      33      0   0   0
      34      29      0   0   0
      34       9      0   0   0
      35      31      0   0   1
      35      40      0   0   0
      35      60      0   0   0
      35      34      0   0   0
      35      30      0   0   0
      35      10      0   0   0
      36      37      0   0   0
      36      41      0   0   0
      36      61      0   0   0
      36      40      0   0  -1
      36      31      0   0   0
      36      11      0   0   0
      37      38      0   0   0
      37      42      0   0   0
      37      62      0   0   0
      37      36      0   0   0
      37      32      0   0   0
      37      12      0   0   0
      38      39      0   0   0
      38      43      0   0   0
      38      63      0   0   0
      38      37      0   0   0
      38      33      0   0   0
      38      13      0   0   0
      39      40      0   0   0
      39      44      0   0   0
      39      64      0   0   0
      39      38      0   0   0
      39      34      0   0   0
      39      14      0   0   0
      40      36      0   0   1
      40      45      0   0   0
      40      65      0   0   0
      40      39      0   0   0
      40      35      0   0   0
      40      15      0   0   0
      41      42      0   0   0
      41      46      0   0   0
      41      66      0   0   0
      41      45      0   0  -1
      41      36      0   0   0
      41      16      0   0   0
      42      43      0   0   0
      42      47      0   0   0
      42      67      0   0   0
      42      41      0   0   0
      42      37      0   0   0
      42      17      0   0   0
      43      44      0   0   0
      43      48      0   0   0
      43      68      0   0   0
      43      42      0   0   0
      43      38      0   0   0
      43      18      0   0   0
      44      45      0   0   0
      44      49      0   0   0
      44      69      0   0   0
      44      43      0   0   0
      44      39      0   0   0
      44      19      0   0   0
      45      41      0   0   1
      45      50      0   0   0
      45      70      0   0   0
      45      44      0   0   0
      45      40      0   0   0
      45      20      0   0   0
      46      47      0   0   0
      46      26      0   1   0
      46      71      0   0   0
      46      50      0   0  -1
      46      41      0   0   0
      46      21      0   0   0
      47      48      0   0   0
      47      27      0   1   0
      47      72      0   0   0
      47      46      0   0   0
      47      42      0   0   0
      47      22      0   0   0
      48      49      0   0   0
      48      28      0   1   0
      48      73      0   0   0
      48      47      0   0   0
      48      43      0   0   0
      48      23      0   0   0
      49      50      0   0   0
      49      29      0   1   0
      49      74      0   0   0
      49      48      0   0   0
      49      44      0   0   0
      49      24      0   0   0
      50      46      0   0   1
      50      30      0   1   0
      50      75      0   0   0
      50      49      0   0   0
      50      45      0   0   0
      50      25      0   0   0
      51      52      0   0   0
      51      56      0   0   0
      51      76      0   0   0
      51      55      0   0  -1
      51      71      0  -1   0
      51      26      0   0   0
      52      53      0   0   0
      52      57      0   0   0
      52      77      0   0   0
      52      51      0   0   0
      52      72      0  -1   0
      52      27      0   0   0
      53      54      0   0   0
      53      58      0   0   0
      53      78      0   0   0
      53      52      0   0   0
      53      73      0  -1   0
      53      28      0   0   0
      54      55      0   0   0
      54      59      0   0   0
      54      79      0   0   0
      54      53      0   0   0
      54      74      0  -1   0
      54      29      0   0   0
      55      51      0   0   1
      55      60      0   0   0
      55      80      0   0   0
      55      54      0   0   0
      55      75      0  -1   0
      55      30      0   0   0
      56      57      0   0   0
      56      61      0   0   0
      56      81      0   0   0
      56      60      0   0  -1
      56      51      0   0   0
      56      31      0   0   0
      57      58      0   0   0
      57      62      0   0   0
      57      82      0   0   0
      57      56      0   0   0
      57      52      0   0   0
      57      32      0   0   0
      58      59      0   0   0
      58      63      0   0   0
      58      83      0   0   0
      58      57      0   0   0
      58      53      0   0   0
      58      33      0   0   0
      59      60      0   0   0
      59      64      0   0   0
      59      84      0   0   0
      59      58      0   0   0
      59      54      0   0   0
      59      34      0   0   0
      60      56      0   0   1
      60      65      0   0   0
      60      85      0   0   0
      60      59      0   0   0
      60      55      0   0   0
      60      35      0   0   0
      61      62      0   0   0
      61      66      0   0   0
      61      86      0   0   0
      61      65      0   0  -1
      61      56      0   0   0
      61      36      0   0   0
      62      63      0   0   0
      62      67      0   0   0
      62      87      0   0   0
      62      61      0   0   0
      62      57      0   0   0
      62      37      0   0   0
      63      64      0   0   0
      63      68      0   0   0
      63      88      0   0   0
      63      62      0   0   0
      63      58      0   0   0
      63      38      0   0   0
      64      65      0   0   0
      64      69      0   0   0
      64      89      0   0   0
      64      63      0   0   0
      64      59      0   0   0
      64      39      0   0   0
      65      61      0   0   1
      65      70      0   0   0
      65      90      0   0   0
      65      64      0   0   0
      65      60      0   0   0
      65      40      0   0   0
      66      67      0   0   0
      66      71      0   0   0
      66      91      0   0   0
      66      70      0   0  -1
      66      61      0   0   0
      66      41      0   0   0
      67      68      0   0   0
      67      72      0   0   0
      67      92      0   0   0
      67      66      0   0   0
      67      62      0   0   0
      67      42      0   0   0
      68      69      0   0   0
      68      73      0   0   0
      68      93      0   0   0
      68      67      0   0   0
      68      63      0   0   0
      68      43      0   0   0
      69      70      0   0   0
      69      74      0   0   0
      69      94      0   0   0
      69      68      0   0   0
      69      64      0   0   0
      69      44      0   0   0
      70      66      0   0   1
      70      75      0   0   0
      70      95      0   0   0
      70      69      0   0   0
      70      65      0   0   0
      70      45      0   0   0
      71      72      0   0   0
      71      51      0   1   0
      71      96      0   0   0
      71      75      0   0  -1
      71      66      0   0   0
      71      46      0   0   0
      72      73      0   0   0
      72      52      0   1   0
      72      97      0   0   0
      72      71      0   0   0
      72      67      0   0   0
      72      47      0   0   0
      73      74      0   0   0
      73      53      0   1   0
      73      98      0   0   0
      73      72      0   0   0
      73      68      0   0   0
      73      48      0   0   0
      74      75      0   0   0
      74      54      0   1   0
      74      99      0   0   0
      74      73      0   0   0
      74      69      0   0   0
      74      49      0   0   0
      75      71      0   0   1
      75      55      0   1   0
      75     100      0   0   0
      75      74      0   0   0
      75      70      0   0   0
      75      50      0   0   0
      76      77      0   0   0
      76      81      0   0   0
      76     101      0   0   0
      76      80      0   0  -1
      76      96      0  -1   0
      76      51      0   0   0
      77      78      0   0   0
      77      82      0   0   0
      77     102      0   0   0
      77      76      0   0   0
      77      97      0  -1   0
      77      52      0   0   0
      78      79      0   0   0
      78      83      0   0   0
      78     103      0   0   0
      78      77      0   0   0
      78      98      0  -1   0
      78      53      0   0   0
      79      80      0   0   0
      79      84      0   0   0
      79     104      0   0   0
      79      78      0   0   0
      79      99      0  -1   0
      79      54      0   0   0
      80      76      0   0   1
      80      85      0   0   0
      80     105      0   0   0
      80      79      0   0   0
      80     100      0  -1   0
      80      55      0   0   0
      81      82      0   0   0
      81      86      0   0   0
      81     106      0   0   0
      81      85      0   0  -1
      81      76      0   0   0
      81      56      0   0   0
      82      83      0   0   0
      82      87      0   0   0
      82     107      0   0   0
      82      81      0   0   0
      82      77      0   0   0
      82      57      0   0   0
      83      84      0   0   0
      83      88      0   0   0
      83     108      0   0   0
      83      82      0   0   0
      83      78      0   0   0
      83      58      0   0   0
      84      85      0   0   0
      84      89      0   0   0
      84     109      0   0   0
      84      83      0   0   0
      84      79      0   0   0
      84      59      0   0   0
      85      81      0   0   1
      85      90      0   0   0
      85     110      0   0   0
      85      84      0   0   0
      85      80      0   0   0
      85      60      0   0   0
      86      87      0   0   0
      86      91      0   0   0
      86     111      0   0   0
      86      90      0   0  -1
      86      81      0   0   0
      86      61      0   0   0
      87      88      0   0   0
      87      92      0   0   0
      87     112      0   0   0
      87      86      0   0   0
      87      82      0   0   0
      87      62      0   0   0
      88      89      0   0   0
      88      93      0   0   0
      88     113      0   0   0
      88      87      0   0   0
      88      83      0   0   0
      88      63      0   0   0
      89      90      0   0   0
      89      94      0   0   0
      89     114      0   0   0
      89      88      0   0   0
      89      84      0   0   0
      89      64      0   0   0
      90      86      0   0   1
      90      95      0   0   0
      90     115      0   0   0
      90      89      0   0   0
      90      85      0   0   0
      90      65      0   0   0
      91      92      0   0   0
      91      96      0   0   0
      91     116      0   0   0
      91      95      0   0  -1
      91      86      0   0   0
      91      66      0   0   0
      92      93      0   0   0
      92      97      0   0   0
      92     117      0   0   0
      92      91      0   0   0
      92      87      0   0   0
      92      67      0   0   0
      93      94      0   0   0
      93      98      0   0   0
      93     118      0   0   0
      93      92      0   0   0
      93      88      0   0   0
      93      68      0   0   0
      94      95      0   0   0
      94      99      0   0   0
      94     119      0   0   0
      94      93      0   0   0
      94      89      0   0   0
      94      69      0   0   0
      95      91      0   0   1
      95     100      0   0   0
      95     120      0   0   0
      95      94      0   0   0
      95      90      0   0   0
      95      70      0   0   0
      96      97      0   0   0
      96      76      0   1   0
      96     121      0   0   0
      96     100      0   0  -1
      96      91      0   0   0
      96      71      0   0   0
      97      98      0   0   0
      97      77      0   1   0
      97     122      0   0   0
      97      96      0   0   0
      97      92      0   0   0
      97      72      0   0   0
      98      99      0   0   0
      98      78      0   1   0
      98     123      0   0   0
      98      97      0   0   0
      98      93      0   0   0
      98      73      0   0   0
      99     100      0   0   0
      99      79      0   1   0
      99     124      0   0   0
      99      98      0   0   0
      99      94      0   0   0
      99      74      0   0   0
     100      96      0   0   1
     100      80      0   1   0
     100     125      0   0   0
     100      99      0   0   0
     100      95      0   0   0
     100      75      0   0   0
     101     102      0   0   0
     101     106      0   0   0
     101       1      1   0   0
     101     105      0   0  -1
     101     121      0  -1   0
     101      76      0   0   0
     102     103      0   0   0
     102     107      0   0   0
     102       2      1   0   0
     102     101      0   0   0
     102     122      0  -1   0
     102      77      0   0   0
     103     104      0   0   0
     103     108      0   0   0
     103       3      1   0   0
     103     102      0   0   0
     103     123      0  -1   0
     103      78      0   0   0
     104     105      0   0   0
     104     109      0   0   0
     104       4      1   0   0
     104     103      0   0   0
     104     124      0  -1   0
     104      79      0   0   0
     105     101      0   0   1
     105     110      0   0   0
     105       5      1   0   0
     105     104      0   0   0
     105     125      0  -1   0
     105      80      0   0   0
     106     107      0   0   0
     106     111      0   0   0
     106       6      1   0   0
     106     110      0   0  -1
     106     101      0   0   0
     106      81      0   0   0
     107     108      0   0   0
     107     112      0   0   0
     107       7      1   0   0
     107     106      0   0   0
     107     102      0   0   0
     107      82      0   0   0
     108     109      0   0   0
     108     113      0   0   0
     108       8      1   0   0
     108     107      0   0   0
     108     103      0   0   0
     108      83      0   0   0
     109     110      0   0   0
     109     114      0   0   0
     109       9      1   0   0
     109     108      0   0   0
     109     104      0   0   0
     109      84      0   0   0
     110     106      0   0   1
     110     115      0   0   0
     110      10      1   0   0
     110     109      0   0   0
     110     105      0   0   0
     110      85      0   0   0
     111     112      0   0   0
     111     116      0   0   0
     111      11      1   0   0
     111     115      0   0  -1
     111     106      0   0   0
     111      86      0   0   0
     112     113      0   0   0
     112     117      0   0   0
     112      12      1   0   0
     112     111      0   0   0
     112     107      0   0   0
     112      87      0   0   0
     113     114      0   0   0
     113     118      0   0   0
     113      13      1   0   0
     113     112      0   0   0
     113     108      0   0   0
     113      88      0   0   0
     114     115      0   0   0
     114     119      0   0   0
     114      14      1   0   0
     114     113      0   0   0
     114     109      0   0   0
     114      89      0   0   0
     115     111      0   0   1
     115     120      0   0   0
     115      15      1   0   0
     115     114      0   0   0
     115     110      0   0   0
     115      90      0   0   0
     116     117      0   0   0
     116     121      0   0   0
     116      16      1   0   0
     116     120      0   0  -1
     116     111      0   0   0
     116      91      0   0   0
     117     118      0   0   0
     117     122      0   0   0
     117      17      1   0   0
     117     116      0   0   0
     117     112      0   0   0
     117      92      0   0   0
     118     119      0   0   0
     118     123      0   0   0
     118      18      1   0   0
     118     117      0   0   0
     118     113      0   0   0
     118      93      0   0   0
     119     120      0   0   0
     119     124      0   0   0
     119      19      1   0   0
     119     118      0   0   0
     119     114      0   0   0
     119      94      0   0   0
     120     116      0   0   1
     120     125      0   0   0
     120      20      1   0   0
     120     119      0   0   0
     120     115      0   0   0
     120      95      0   0   0
     121     122      0   0   0
     121     101      0   1   0
     121      21      1   0   0
     121     125      0   0  -1
     121     116      0   0   0
     121      96      0   0   0
     122     123      0   0   0
     122     102      0   1   0
     122      22      1   0   0
     122     121      0   0   0
     122     117      0   0   0
     122      97      0   0   0
     123     124      0   0   0
     123     103      0   1   0
     123      23      1   0   0
     123     122      0   0   0
     123     118      0   0   0
     123      98      0   0   0
     124     125      0   0   0
     124     104      0   1   0
     124      24      1   0   0
     124     123      0   0   0
     124     119      0   0   0
     124      99      0   0   0
     125     121      0   0   1
     125     105      0   1   0
     125      25      1   0   0
     125     124      0   0   0
     125     120      0   0   0
     125     100      0   0   0
end nnkpts

begin exclude_bands
  45
   1
   2
   3
   4
   5
   6
   7
   8
   9
  10
  11
  12
  13
  14
  15
  16
  17
  18
  19
  20
  21
  22
  23
  24
  25
  26
  27
  28
  29
  30
  31
  32
  33
  34
  35
  36
  37
  38
  39
  40
  41
  42
  43
  44
 101
end exclude_bands
