
             +---------------------------------------------------+
             |                                                   |
             |                   WANNIER90                       |
             |                                                   |
             +---------------------------------------------------+
             |                                                   |
             |        Welcome to the Maximally-Localized         |
             |        Generalized Wannier Functions code         |
             |            http://www.wannier.org                 |
             |                                                   |
             |                                                   |
             |  Wannier90 Developer Group:                       |
             |    Giovanni Pizzi    (Paul Scherrer Institute)    |
             |    Valerio Vitale    (University of Trieste)      |
             |    David Vanderbilt  (Rutgers University)         |
             |    Nicola Marzari    (EPFL)                       |
             |    Ivo Souza         (Universidad del Pais Vasco) |
             |    Arash A. Mostofi  (Imperial College London)    |
             |    Jonathan R. Yates (University of Oxford)       |
             |                                                   |
             |  For the full list of Wannier90 3.x authors,      |
             |  please check the code documentation and the      |
             |  README on the GitHub page of the code            |
             |                                                   |
             |                                                   |
             |  Please cite                                      |
             |                                                   |
             |  [ref] "Wannier90 as a community code:            |
             |        new features and applications",            |
             |        G. Pizzi et al., J. Phys. Cond. Matt. 32,  |
             |        165902 (2020).                             |
             |        http://doi.org/10.1088/1361-648X/ab51ff    |
             |                                                   |
             |  in any publications arising from the use of      |
             |  this code. For the method please cite            |
             |                                                   |
             |  [ref] "Maximally Localized Generalised Wannier   |
             |         Functions for Composite Energy Bands"     |
             |         N. Marzari and D. Vanderbilt              |
             |         Phys. Rev. B 56 12847 (1997)              |
             |                                                   |
             |  [ref] "Maximally Localized Wannier Functions     |
             |         for Entangled Energy Bands"               |
             |         I. Souza, N. Marzari and D. Vanderbilt    |
             |         Phys. Rev. B 65 035109 (2001)             |
             |                                                   |
             |                                                   |
             | Copyright (c) 1996-2020                           |
             |        The Wannier90 Developer Group and          |
             |        individual contributors                    |
             |                                                   |
             |      Release: 3.1.0        5th March    2020      |
             |                                                   |
             | This program is free software; you can            |
             | redistribute it and/or modify it under the terms  |
             | of the GNU General Public License as published by |
             | the Free Software Foundation; either version 2 of |
             | the License, or (at your option) any later version|
             |                                                   |
             | This program is distributed in the hope that it   |
             | will be useful, but WITHOUT ANY WARRANTY; without |
             | even the implied warranty of MERCHANTABILITY or   |
             | FITNESS FOR A PARTICULAR PURPOSE. See the GNU     |
             | General Public License for more details.          |
             |                                                   |
             | You should have received a copy of the GNU General|
             | Public License along with this program; if not,   |
             | write to the Free Software Foundation, Inc.,      |
             | 675 Mass Ave, Cambridge, MA 02139, USA.           |
             |                                                   |
             +---------------------------------------------------+
             |    Execution started on 29Nov2025 at 20:40:56     |
             +---------------------------------------------------+
 
 ******************************************************************************
 * -> Using CODATA 2006 constant values                                       *
 *    (http://physics.nist.gov/cuu/Constants/index.html)                      *
 * -> Using Bohr value from CODATA                                            *
 ******************************************************************************

 Running in parallel on 128 CPUs

                                    ------
                                    SYSTEM
                                    ------

                              Lattice Vectors (Ang)
                    a_1     5.613960   0.000000   0.000000
                    a_2     0.000000   5.613960   0.000000
                    a_3     0.000000   0.000000   7.939340

                   Unit Cell Volume:     250.22058  (Ang^3)

                        Reciprocal-Space Vectors (Ang^-1)
                    b_1     1.119207   0.000000   0.000000
                    b_2     0.000000   1.119207   0.000000
                    b_3     0.000000   0.000000   0.791399
  
 *----------------------------------------------------------------------------*
 |   Site       Fractional Coordinate          Cartesian Coordinate (Ang)     |
 +----------------------------------------------------------------------------+
 | sr   1   0.00000   0.50000   0.25000   |    0.00000   2.80698   1.98483    |
 | sr   2   0.00000   0.50000   0.75000   |    0.00000   2.80698   5.95450    |
 | sr   3   0.50000   0.00000   0.75000   |    2.80698   0.00000   5.95450    |
 | sr   4   0.50000   0.00000   0.25000   |    2.80698   0.00000   1.98483    |
 | mo   1   0.00000   0.00000   0.00000   |    0.00000   0.00000   0.00000    |
 | mo   2   0.00000   0.00000   0.50000   |    0.00000   0.00000   3.96967    |
 | mo   3   0.50000   0.50000   0.50000   |    2.80698   2.80698   3.96967    |
 | mo   4   0.50000   0.50000   0.00000   |    2.80698   2.80698   0.00000    |
 | o    1   0.25000   0.75000   0.00445   |    1.40349   4.21047   0.03535    |
 | o    2   0.25000   0.25000  -0.00445   |    1.40349   1.40349  -0.03535    |
 | o    3   0.75000   0.25000   0.50445   |    4.21047   1.40349   4.00502    |
 | o    4   0.75000   0.75000   0.49555   |    4.21047   4.21047   3.93432    |
 | o    5   0.75000   0.25000  -0.00445   |    4.21047   1.40349  -0.03535    |
 | o    6   0.75000   0.75000   0.00445   |    4.21047   4.21047   0.03535    |
 | o    7   0.25000   0.75000   0.49555   |    1.40349   4.21047   3.93432    |
 | o    8   0.25000   0.25000   0.50445   |    1.40349   1.40349   4.00502    |
 | o    9   0.00000   0.00891   0.25000   |    0.00000   0.05000   1.98483    |
 | o   10   0.00000  -0.00891   0.75000   |    0.00000  -0.05000   5.95450    |
 | o   11   0.50000   0.50891   0.75000   |    2.80698   2.85698   5.95450    |
 | o   12   0.50000   0.49109   0.25000   |    2.80698   2.75698   1.98483    |
 *----------------------------------------------------------------------------*
                                -----------
                                PROJECTIONS
                                -----------
  
 +----------------------------------------------------------------------------+
 |     Frac. Coord.   l mr  r        z-axis               x-axis          Z/a |
 +----------------------------------------------------------------------------+
 |  0.00  0.00  0.00  2  2  1  0.000  0.000  1.000  0.707  0.707  0.000   1.0 |
 |  0.00  0.00  0.00  2  3  1  0.000  0.000  1.000  0.707  0.707  0.000   1.0 |
 |  0.00  0.00  0.00  2  5  1  0.000  0.000  1.000  0.707  0.707  0.000   1.0 |
 |  0.00  0.00  0.50  2  2  1  0.000  0.000  1.000  0.707  0.707  0.000   1.0 |
 |  0.00  0.00  0.50  2  3  1  0.000  0.000  1.000  0.707  0.707  0.000   1.0 |
 |  0.00  0.00  0.50  2  5  1  0.000  0.000  1.000  0.707  0.707  0.000   1.0 |
 |  0.50  0.50  0.50  2  2  1  0.000  0.000  1.000  0.707  0.707  0.000   1.0 |
 |  0.50  0.50  0.50  2  3  1  0.000  0.000  1.000  0.707  0.707  0.000   1.0 |
 |  0.50  0.50  0.50  2  5  1  0.000  0.000  1.000  0.707  0.707  0.000   1.0 |
 |  0.50  0.50  0.00  2  2  1  0.000  0.000  1.000  0.707  0.707  0.000   1.0 |
 |  0.50  0.50  0.00  2  3  1  0.000  0.000  1.000  0.707  0.707  0.000   1.0 |
 |  0.50  0.50  0.00  2  5  1  0.000  0.000  1.000  0.707  0.707  0.000   1.0 |
 |  0.00  0.00  0.00  2  1  1  0.000  0.000  1.000  0.707  0.707  0.000   1.0 |
 |  0.00  0.00  0.00  2  4  1  0.000  0.000  1.000  0.707  0.707  0.000   1.0 |
 |  0.00  0.00  0.50  2  1  1  0.000  0.000  1.000  0.707  0.707  0.000   1.0 |
 |  0.00  0.00  0.50  2  4  1  0.000  0.000  1.000  0.707  0.707  0.000   1.0 |
 |  0.50  0.50  0.50  2  1  1  0.000  0.000  1.000  0.707  0.707  0.000   1.0 |
 |  0.50  0.50  0.50  2  4  1  0.000  0.000  1.000  0.707  0.707  0.000   1.0 |
 |  0.50  0.50  0.00  2  1  1  0.000  0.000  1.000  0.707  0.707  0.000   1.0 |
 |  0.50  0.50  0.00  2  4  1  0.000  0.000  1.000  0.707  0.707  0.000   1.0 |
 |  0.25  0.75  0.00  1  1  1  0.000  0.000  1.000  1.000  0.000  0.000   1.0 |
 |  0.25  0.75  0.00  1  2  1  0.000  0.000  1.000  1.000  0.000  0.000   1.0 |
 |  0.25  0.75  0.00  1  3  1  0.000  0.000  1.000  1.000  0.000  0.000   1.0 |
 |  0.25  0.25 -0.00  1  1  1  0.000  0.000  1.000  1.000  0.000  0.000   1.0 |
 |  0.25  0.25 -0.00  1  2  1  0.000  0.000  1.000  1.000  0.000  0.000   1.0 |
 |  0.25  0.25 -0.00  1  3  1  0.000  0.000  1.000  1.000  0.000  0.000   1.0 |
 |  0.75  0.25  0.50  1  1  1  0.000  0.000  1.000  1.000  0.000  0.000   1.0 |
 |  0.75  0.25  0.50  1  2  1  0.000  0.000  1.000  1.000  0.000  0.000   1.0 |
 |  0.75  0.25  0.50  1  3  1  0.000  0.000  1.000  1.000  0.000  0.000   1.0 |
 |  0.75  0.75  0.50  1  1  1  0.000  0.000  1.000  1.000  0.000  0.000   1.0 |
 |  0.75  0.75  0.50  1  2  1  0.000  0.000  1.000  1.000  0.000  0.000   1.0 |
 |  0.75  0.75  0.50  1  3  1  0.000  0.000  1.000  1.000  0.000  0.000   1.0 |
 |  0.75  0.25 -0.00  1  1  1  0.000  0.000  1.000  1.000  0.000  0.000   1.0 |
 |  0.75  0.25 -0.00  1  2  1  0.000  0.000  1.000  1.000  0.000  0.000   1.0 |
 |  0.75  0.25 -0.00  1  3  1  0.000  0.000  1.000  1.000  0.000  0.000   1.0 |
 |  0.75  0.75  0.00  1  1  1  0.000  0.000  1.000  1.000  0.000  0.000   1.0 |
 |  0.75  0.75  0.00  1  2  1  0.000  0.000  1.000  1.000  0.000  0.000   1.0 |
 |  0.75  0.75  0.00  1  3  1  0.000  0.000  1.000  1.000  0.000  0.000   1.0 |
 |  0.25  0.75  0.50  1  1  1  0.000  0.000  1.000  1.000  0.000  0.000   1.0 |
 |  0.25  0.75  0.50  1  2  1  0.000  0.000  1.000  1.000  0.000  0.000   1.0 |
 |  0.25  0.75  0.50  1  3  1  0.000  0.000  1.000  1.000  0.000  0.000   1.0 |
 |  0.25  0.25  0.50  1  1  1  0.000  0.000  1.000  1.000  0.000  0.000   1.0 |
 |  0.25  0.25  0.50  1  2  1  0.000  0.000  1.000  1.000  0.000  0.000   1.0 |
 |  0.25  0.25  0.50  1  3  1  0.000  0.000  1.000  1.000  0.000  0.000   1.0 |
 |  0.00  0.01  0.25  1  1  1  0.000  0.000  1.000  1.000  0.000  0.000   1.0 |
 |  0.00  0.01  0.25  1  2  1  0.000  0.000  1.000  1.000  0.000  0.000   1.0 |
 |  0.00  0.01  0.25  1  3  1  0.000  0.000  1.000  1.000  0.000  0.000   1.0 |
 |  0.00 -0.01  0.75  1  1  1  0.000  0.000  1.000  1.000  0.000  0.000   1.0 |
 |  0.00 -0.01  0.75  1  2  1  0.000  0.000  1.000  1.000  0.000  0.000   1.0 |
 |  0.00 -0.01  0.75  1  3  1  0.000  0.000  1.000  1.000  0.000  0.000   1.0 |
 |  0.50  0.51  0.75  1  1  1  0.000  0.000  1.000  1.000  0.000  0.000   1.0 |
 |  0.50  0.51  0.75  1  2  1  0.000  0.000  1.000  1.000  0.000  0.000   1.0 |
 |  0.50  0.51  0.75  1  3  1  0.000  0.000  1.000  1.000  0.000  0.000   1.0 |
 |  0.50  0.49  0.25  1  1  1  0.000  0.000  1.000  1.000  0.000  0.000   1.0 |
 |  0.50  0.49  0.25  1  2  1  0.000  0.000  1.000  1.000  0.000  0.000   1.0 |
 |  0.50  0.49  0.25  1  3  1  0.000  0.000  1.000  1.000  0.000  0.000   1.0 |
 +----------------------------------------------------------------------------+
  
                                ------------
                                K-POINT GRID
                                ------------
  
             Grid size =  5 x  5 x  5      Total points =  125
  
 *----------------------------------------------------------------------------*
 | k-point      Fractional Coordinate        Cartesian Coordinate (Ang^-1)    |
 +----------------------------------------------------------------------------+
 |     1    0.00000   0.00000   0.00000   |    0.00000   0.00000   0.00000    |
 |     2    0.00000   0.00000   0.20000   |    0.00000   0.00000   0.15828    |
 |     3    0.00000   0.00000   0.40000   |    0.00000   0.00000   0.31656    |
 |     4    0.00000   0.00000   0.60000   |    0.00000   0.00000   0.47484    |
 |     5    0.00000   0.00000   0.80000   |    0.00000   0.00000   0.63312    |
 |     6    0.00000   0.20000   0.00000   |    0.00000   0.22384   0.00000    |
 |     7    0.00000   0.20000   0.20000   |    0.00000   0.22384   0.15828    |
 |     8    0.00000   0.20000   0.40000   |    0.00000   0.22384   0.31656    |
 |     9    0.00000   0.20000   0.60000   |    0.00000   0.22384   0.47484    |
 |    10    0.00000   0.20000   0.80000   |    0.00000   0.22384   0.63312    |
 |    11    0.00000   0.40000   0.00000   |    0.00000   0.44768   0.00000    |
 |    12    0.00000   0.40000   0.20000   |    0.00000   0.44768   0.15828    |
 |    13    0.00000   0.40000   0.40000   |    0.00000   0.44768   0.31656    |
 |    14    0.00000   0.40000   0.60000   |    0.00000   0.44768   0.47484    |
 |    15    0.00000   0.40000   0.80000   |    0.00000   0.44768   0.63312    |
 |    16    0.00000   0.60000   0.00000   |    0.00000   0.67152   0.00000    |
 |    17    0.00000   0.60000   0.20000   |    0.00000   0.67152   0.15828    |
 |    18    0.00000   0.60000   0.40000   |    0.00000   0.67152   0.31656    |
 |    19    0.00000   0.60000   0.60000   |    0.00000   0.67152   0.47484    |
 |    20    0.00000   0.60000   0.80000   |    0.00000   0.67152   0.63312    |
 |    21    0.00000   0.80000   0.00000   |    0.00000   0.89537   0.00000    |
 |    22    0.00000   0.80000   0.20000   |    0.00000   0.89537   0.15828    |
 |    23    0.00000   0.80000   0.40000   |    0.00000   0.89537   0.31656    |
 |    24    0.00000   0.80000   0.60000   |    0.00000   0.89537   0.47484    |
 |    25    0.00000   0.80000   0.80000   |    0.00000   0.89537   0.63312    |
 |    26    0.20000   0.00000   0.00000   |    0.22384   0.00000   0.00000    |
 |    27    0.20000   0.00000   0.20000   |    0.22384   0.00000   0.15828    |
 |    28    0.20000   0.00000   0.40000   |    0.22384   0.00000   0.31656    |
 |    29    0.20000   0.00000   0.60000   |    0.22384   0.00000   0.47484    |
 |    30    0.20000   0.00000   0.80000   |    0.22384   0.00000   0.63312    |
 |    31    0.20000   0.20000   0.00000   |    0.22384   0.22384   0.00000    |
 |    32    0.20000   0.20000   0.20000   |    0.22384   0.22384   0.15828    |
 |    33    0.20000   0.20000   0.40000   |    0.22384   0.22384   0.31656    |
 |    34    0.20000   0.20000   0.60000   |    0.22384   0.22384   0.47484    |
 |    35    0.20000   0.20000   0.80000   |    0.22384   0.22384   0.63312    |
 |    36    0.20000   0.40000   0.00000   |    0.22384   0.44768   0.00000    |
 |    37    0.20000   0.40000   0.20000   |    0.22384   0.44768   0.15828    |
 |    38    0.20000   0.40000   0.40000   |    0.22384   0.44768   0.31656    |
 |    39    0.20000   0.40000   0.60000   |    0.22384   0.44768   0.47484    |
 |    40    0.20000   0.40000   0.80000   |    0.22384   0.44768   0.63312    |
 |    41    0.20000   0.60000   0.00000   |    0.22384   0.67152   0.00000    |
 |    42    0.20000   0.60000   0.20000   |    0.22384   0.67152   0.15828    |
 |    43    0.20000   0.60000   0.40000   |    0.22384   0.67152   0.31656    |
 |    44    0.20000   0.60000   0.60000   |    0.22384   0.67152   0.47484    |
 |    45    0.20000   0.60000   0.80000   |    0.22384   0.67152   0.63312    |
 |    46    0.20000   0.80000   0.00000   |    0.22384   0.89537   0.00000    |
 |    47    0.20000   0.80000   0.20000   |    0.22384   0.89537   0.15828    |
 |    48    0.20000   0.80000   0.40000   |    0.22384   0.89537   0.31656    |
 |    49    0.20000   0.80000   0.60000   |    0.22384   0.89537   0.47484    |
 |    50    0.20000   0.80000   0.80000   |    0.22384   0.89537   0.63312    |
 |    51    0.40000   0.00000   0.00000   |    0.44768   0.00000   0.00000    |
 |    52    0.40000   0.00000   0.20000   |    0.44768   0.00000   0.15828    |
 |    53    0.40000   0.00000   0.40000   |    0.44768   0.00000   0.31656    |
 |    54    0.40000   0.00000   0.60000   |    0.44768   0.00000   0.47484    |
 |    55    0.40000   0.00000   0.80000   |    0.44768   0.00000   0.63312    |
 |    56    0.40000   0.20000   0.00000   |    0.44768   0.22384   0.00000    |
 |    57    0.40000   0.20000   0.20000   |    0.44768   0.22384   0.15828    |
 |    58    0.40000   0.20000   0.40000   |    0.44768   0.22384   0.31656    |
 |    59    0.40000   0.20000   0.60000   |    0.44768   0.22384   0.47484    |
 |    60    0.40000   0.20000   0.80000   |    0.44768   0.22384   0.63312    |
 |    61    0.40000   0.40000   0.00000   |    0.44768   0.44768   0.00000    |
 |    62    0.40000   0.40000   0.20000   |    0.44768   0.44768   0.15828    |
 |    63    0.40000   0.40000   0.40000   |    0.44768   0.44768   0.31656    |
 |    64    0.40000   0.40000   0.60000   |    0.44768   0.44768   0.47484    |
 |    65    0.40000   0.40000   0.80000   |    0.44768   0.44768   0.63312    |
 |    66    0.40000   0.60000   0.00000   |    0.44768   0.67152   0.00000    |
 |    67    0.40000   0.60000   0.20000   |    0.44768   0.67152   0.15828    |
 |    68    0.40000   0.60000   0.40000   |    0.44768   0.67152   0.31656    |
 |    69    0.40000   0.60000   0.60000   |    0.44768   0.67152   0.47484    |
 |    70    0.40000   0.60000   0.80000   |    0.44768   0.67152   0.63312    |
 |    71    0.40000   0.80000   0.00000   |    0.44768   0.89537   0.00000    |
 |    72    0.40000   0.80000   0.20000   |    0.44768   0.89537   0.15828    |
 |    73    0.40000   0.80000   0.40000   |    0.44768   0.89537   0.31656    |
 |    74    0.40000   0.80000   0.60000   |    0.44768   0.89537   0.47484    |
 |    75    0.40000   0.80000   0.80000   |    0.44768   0.89537   0.63312    |
 |    76    0.60000   0.00000   0.00000   |    0.67152   0.00000   0.00000    |
 |    77    0.60000   0.00000   0.20000   |    0.67152   0.00000   0.15828    |
 |    78    0.60000   0.00000   0.40000   |    0.67152   0.00000   0.31656    |
 |    79    0.60000   0.00000   0.60000   |    0.67152   0.00000   0.47484    |
 |    80    0.60000   0.00000   0.80000   |    0.67152   0.00000   0.63312    |
 |    81    0.60000   0.20000   0.00000   |    0.67152   0.22384   0.00000    |
 |    82    0.60000   0.20000   0.20000   |    0.67152   0.22384   0.15828    |
 |    83    0.60000   0.20000   0.40000   |    0.67152   0.22384   0.31656    |
 |    84    0.60000   0.20000   0.60000   |    0.67152   0.22384   0.47484    |
 |    85    0.60000   0.20000   0.80000   |    0.67152   0.22384   0.63312    |
 |    86    0.60000   0.40000   0.00000   |    0.67152   0.44768   0.00000    |
 |    87    0.60000   0.40000   0.20000   |    0.67152   0.44768   0.15828    |
 |    88    0.60000   0.40000   0.40000   |    0.67152   0.44768   0.31656    |
 |    89    0.60000   0.40000   0.60000   |    0.67152   0.44768   0.47484    |
 |    90    0.60000   0.40000   0.80000   |    0.67152   0.44768   0.63312    |
 |    91    0.60000   0.60000   0.00000   |    0.67152   0.67152   0.00000    |
 |    92    0.60000   0.60000   0.20000   |    0.67152   0.67152   0.15828    |
 |    93    0.60000   0.60000   0.40000   |    0.67152   0.67152   0.31656    |
 |    94    0.60000   0.60000   0.60000   |    0.67152   0.67152   0.47484    |
 |    95    0.60000   0.60000   0.80000   |    0.67152   0.67152   0.63312    |
 |    96    0.60000   0.80000   0.00000   |    0.67152   0.89537   0.00000    |
 |    97    0.60000   0.80000   0.20000   |    0.67152   0.89537   0.15828    |
 |    98    0.60000   0.80000   0.40000   |    0.67152   0.89537   0.31656    |
 |    99    0.60000   0.80000   0.60000   |    0.67152   0.89537   0.47484    |
 |   100    0.60000   0.80000   0.80000   |    0.67152   0.89537   0.63312    |
 |   101    0.80000   0.00000   0.00000   |    0.89537   0.00000   0.00000    |
 |   102    0.80000   0.00000   0.20000   |    0.89537   0.00000   0.15828    |
 |   103    0.80000   0.00000   0.40000   |    0.89537   0.00000   0.31656    |
 |   104    0.80000   0.00000   0.60000   |    0.89537   0.00000   0.47484    |
 |   105    0.80000   0.00000   0.80000   |    0.89537   0.00000   0.63312    |
 |   106    0.80000   0.20000   0.00000   |    0.89537   0.22384   0.00000    |
 |   107    0.80000   0.20000   0.20000   |    0.89537   0.22384   0.15828    |
 |   108    0.80000   0.20000   0.40000   |    0.89537   0.22384   0.31656    |
 |   109    0.80000   0.20000   0.60000   |    0.89537   0.22384   0.47484    |
 |   110    0.80000   0.20000   0.80000   |    0.89537   0.22384   0.63312    |
 |   111    0.80000   0.40000   0.00000   |    0.89537   0.44768   0.00000    |
 |   112    0.80000   0.40000   0.20000   |    0.89537   0.44768   0.15828    |
 |   113    0.80000   0.40000   0.40000   |    0.89537   0.44768   0.31656    |
 |   114    0.80000   0.40000   0.60000   |    0.89537   0.44768   0.47484    |
 |   115    0.80000   0.40000   0.80000   |    0.89537   0.44768   0.63312    |
 |   116    0.80000   0.60000   0.00000   |    0.89537   0.67152   0.00000    |
 |   117    0.80000   0.60000   0.20000   |    0.89537   0.67152   0.15828    |
 |   118    0.80000   0.60000   0.40000   |    0.89537   0.67152   0.31656    |
 |   119    0.80000   0.60000   0.60000   |    0.89537   0.67152   0.47484    |
 |   120    0.80000   0.60000   0.80000   |    0.89537   0.67152   0.63312    |
 |   121    0.80000   0.80000   0.00000   |    0.89537   0.89537   0.00000    |
 |   122    0.80000   0.80000   0.20000   |    0.89537   0.89537   0.15828    |
 |   123    0.80000   0.80000   0.40000   |    0.89537   0.89537   0.31656    |
 |   124    0.80000   0.80000   0.60000   |    0.89537   0.89537   0.47484    |
 |   125    0.80000   0.80000   0.80000   |    0.89537   0.89537   0.63312    |
 *----------------------------------------------------------------------------*
  
  
 *---------------------------------- MAIN ------------------------------------*
 |  Number of Wannier Functions               :                56             |
 |  Number of Objective Wannier Functions     :                56             |
 |  Number of input Bloch states              :                56             |
 |  Output verbosity (1=low, 5=high)          :                 2             |
 |  Timing Level (1=low, 5=high)              :                 1             |
 |  Optimisation (0=memory, 3=speed)          :                 3             |
 |  Length Unit                               :               Ang             |
 |  Post-processing setup (write *.nnkp)      :                 F             |
 |  Using Gamma-only branch of algorithms     :                 F             |
 *----------------------------------------------------------------------------*
 *------------------------------- WANNIERISE ---------------------------------*
 |  Total number of iterations                :             10000             |
 |  Number of CG steps before reset           :                 5             |
 |  Trial step length for line search         :             2.000             |
 |  Convergence tolerence                     :         0.100E-11             |
 |  Convergence window                        :                 5             |
 |  Iterations between writing output         :               200             |
 |  Iterations between backing up to disk     :               100             |
 |  Write r^2_nm to file                      :                 F             |
 |  Write xyz WF centres to file              :                 F             |
 |  Write on-site energies <0n|H|0n> to file  :                 F             |
 |  Use guiding centre to control phases      :                 F             |
 |  Use phases for initial projections        :                 F             |
 *----------------------------------------------------------------------------*
 *-------------------------------- PLOTTING ----------------------------------*
 |  Plotting interpolated bandstructure       :                 T             |
 |   Number of K-path sections                :                 7             |
 |   Divisions along first K-path section     :               100             |
 |   Output format                            :           gnuplot             |
 |   Output mode                              :               s-k             |
 *----------------------------------------------------------------------------*
 |   K-space path sections:                                                   |
 |    From: G       0.000  0.000  0.000     To: X       0.000  0.500  0.000   |
 |    From: X       0.000  0.500  0.000     To: M       0.500  0.500  0.000   |
 |    From: M       0.500  0.500  0.000     To: G       0.000  0.000  0.000   |
 |    From: G       0.000  0.000  0.000     To: Z       0.000  0.000  0.500   |
 |    From: Z       0.000  0.000  0.500     To: R       0.000  0.500  0.500   |
 |    From: R       0.000  0.500  0.500     To: A       0.500  0.500  0.500   |
 |    From: A       0.500  0.500  0.500     To: Z       0.000  0.000  0.500   |
 *----------------------------------------------------------------------------*
 |  Plotting Hamiltonian in WF basis          :                 T             |
 *----------------------------------------------------------------------------*

 *---------------------------------- K-MESH ----------------------------------*
 +----------------------------------------------------------------------------+
 |                    Distance to Nearest-Neighbour Shells                    |
 |                    ------------------------------------                    |
 |          Shell             Distance (Ang^-1)          Multiplicity         |
 |          -----             -----------------          ------------         |
 |             1                   0.158280                      2            |
 |             2                   0.223841                      4            |
 |             3                   0.274149                      8            |
 |             4                   0.316560                      6            |
 |             5                   0.353924                      8            |
 |             6                   0.387705                      8            |
 |             7                   0.447683                     12            |
 |             8                   0.474839                     10            |
 |             9                   0.500525                      8            |
 |            10                   0.524955                     24            |
 |            11                   0.548297                      8            |
 |            12                   0.570686                      8            |
 |            13                   0.592229                     16            |
 |            14                   0.633119                      6            |
 |            15                   0.652604                     16            |
 |            16                   0.671524                     12            |
 |            17                   0.689926                     24            |
 |            18                   0.707849                     24            |
 |            19                   0.725329                     16            |
 |            20                   0.742398                      8            |
 |            21                   0.775409                     24            |
 |            22                   0.791399                     10            |
 |            23                   0.807072                     24            |
 |            24                   0.822446                     32            |
 |            25                   0.852363                     24            |
 |            26                   0.866934                     16            |
 |            27                   0.895366                     12            |
 |            28                   0.909248                     16            |
 |            29                   0.922922                     16            |
 |            30                   0.936396                     48            |
 |            31                   0.949679                     30            |
 |            32                   0.962779                      8            |
 |            33                   0.975702                     24            |
 |            34                   1.001049                     24            |
 |            35                   1.013485                     32            |
 |            36                   1.025770                     16            |
 +----------------------------------------------------------------------------+
 | The b-vectors are chosen automatically                                     |
 | Shell:  1 w_b   19.9580947      (Ang^2)                                    |
 | Shell:  1 w_b   19.9580947      (Ang^2)                                    |
 | Shell:  2 w_b    9.9790432      (Ang^2)                                    |
 | The following shells are used:   1,  2                 |
 +----------------------------------------------------------------------------+
 |                        Shell   # Nearest-Neighbours                        |
 |                        -----   --------------------                        |
 |                          1               2                                 |
 |                          2               4                                 |
 +----------------------------------------------------------------------------+
 | Completeness relation is fully satisfied [Eq. (B1), PRB 56, 12847 (1997)]  |
 +----------------------------------------------------------------------------+
 |                  b_k Vectors (Ang^-1) and Weights (Ang^2)                  |
 |                  ----------------------------------------                  |
 |            No.         b_k(x)      b_k(y)      b_k(z)        w_b           |
 |            ---        --------------------------------     --------        |
 |             1         0.000000    0.000000    0.158280    19.958095        |
 |             2         0.000000    0.000000   -0.158280    19.958095        |
 |             3         0.000000    0.223841    0.000000     9.979043        |
 |             4         0.223841    0.000000    0.000000     9.979043        |
 |             5         0.000000   -0.223841    0.000000     9.979043        |
 |             6        -0.223841    0.000000    0.000000     9.979043        |
 +----------------------------------------------------------------------------+
 |                           b_k Directions (Ang^-1)                          |
 |                           -----------------------                          |
 |            No.           x           y           z                         |
 |            ---        --------------------------------                     |
 |             1         0.000000    0.000000    0.158280                     |
 |             2         0.000000    0.223841    0.000000                     |
 |             3         0.223841    0.000000    0.000000                     |
 +----------------------------------------------------------------------------+
  
 Starting a new Wannier90 calculation ...


 Reading overlaps from smo.mmn    :  Created on 29Nov2025 at 20:40:26

 Reading projections from smo.amn :  Created on 29Nov2025 at 20:40: 7

 *------------------------------- WANNIERISE ---------------------------------*
 +--------------------------------------------------------------------+<-- CONV
 | Iter  Delta Spread     RMS Gradient      Spread (Ang^2)      Time  |<-- CONV
 +--------------------------------------------------------------------+<-- CONV

 ------------------------------------------------------------------------------
 Initial State
  WF centre and spread    1  ( -0.000048, -0.000052, -0.000123 )     1.59252696
  WF centre and spread    2  ( -0.000168,  0.000141, -0.000126 )     1.59427609
  WF centre and spread    3  (  0.000011,  0.000033, -0.000037 )     1.47495353
  WF centre and spread    4  (  0.000031,  0.000105,  3.969522 )     1.59451218
  WF centre and spread    5  (  0.000030,  0.000019,  3.969801 )     1.59418095
  WF centre and spread    6  ( -0.000023, -0.000025,  3.969677 )     1.47329475
  WF centre and spread    7  (  2.807014,  2.807056,  3.969610 )     1.59649164
  WF centre and spread    8  (  2.807105,  2.806962,  3.969783 )     1.59458142
  WF centre and spread    9  (  2.807000,  2.806963,  3.969681 )     1.47464599
  WF centre and spread   10  (  2.806957,  2.807029,  0.000144 )     1.59213516
  WF centre and spread   11  (  2.807133,  2.806930, -0.000011 )     1.58981438
  WF centre and spread   12  (  2.806956,  2.806997,  0.000039 )     1.47400453
  WF centre and spread   13  ( -0.036182,  0.040540,  0.084277 )    42.00301794
  WF centre and spread   14  ( -0.004349,  0.013818, -0.145619 )    39.22913653
  WF centre and spread   15  (  0.006605,  0.088723,  3.988862 )    43.11899734
  WF centre and spread   16  (  0.045417,  0.023141,  3.874811 )    39.00255243
  WF centre and spread   17  (  2.864401,  2.827328,  3.986704 )    42.72443848
  WF centre and spread   18  (  2.879480,  2.879314,  3.936750 )    39.12036338
  WF centre and spread   19  (  2.793248,  2.834637, -0.085227 )    41.79466672
  WF centre and spread   20  (  2.792318,  2.735811, -0.088207 )    39.68096847
  WF centre and spread   21  (  1.403514,  4.210506,  0.042076 )     1.19222855
  WF centre and spread   22  (  1.404944,  4.214373,  0.034544 )     7.25354746
  WF centre and spread   23  (  1.402948,  4.213967,  0.026082 )     7.26308232
  WF centre and spread   24  (  1.403511,  1.403502, -0.042098 )     1.19358263
  WF centre and spread   25  (  1.403426,  1.401109, -0.051502 )     7.20284049
  WF centre and spread   26  (  1.405162,  1.400675, -0.043595 )     7.24925259
  WF centre and spread   27  (  4.210470,  1.403476,  4.012086 )     1.19163308
  WF centre and spread   28  (  4.219063,  1.405896,  4.005099 )     7.18445094
  WF centre and spread   29  (  4.221333,  1.409281,  3.996734 )     7.17807260
  WF centre and spread   30  (  4.210428,  4.210481,  3.927281 )     1.19289916
  WF centre and spread   31  (  4.211050,  4.218705,  3.927790 )     7.21351546
  WF centre and spread   32  (  4.211231,  4.217584,  3.934999 )     7.23793926
  WF centre and spread   33  (  4.210486,  1.403515, -0.042214 )     1.19422108
  WF centre and spread   34  (  4.208797,  1.400786, -0.054383 )     7.11498565
  WF centre and spread   35  (  4.207192,  1.401760, -0.048711 )     7.12872678
  WF centre and spread   36  (  4.210481,  4.210485,  0.042115 )     1.19526066
  WF centre and spread   37  (  4.210366,  4.208273,  0.034751 )     7.20909980
  WF centre and spread   38  (  4.209496,  4.209696,  0.026456 )     7.24734955
  WF centre and spread   39  (  1.403499,  4.210470,  3.927188 )     1.19316720
  WF centre and spread   40  (  1.406852,  4.213015,  3.931670 )     7.20482030
  WF centre and spread   41  (  1.405810,  4.212156,  3.937378 )     7.19914430
  WF centre and spread   42  (  1.403464,  1.403497,  4.012190 )     1.19443724
  WF centre and spread   43  (  1.405794,  1.410127,  3.992906 )     7.27540675
  WF centre and spread   44  (  1.405833,  1.408451,  3.985705 )     7.28647263
  WF centre and spread   45  ( -0.005049,  0.081435,  2.003753 )    13.37611806
  WF centre and spread   46  (  0.000075,  0.049697,  1.984871 )     1.13585840
  WF centre and spread   47  (  0.000077,  0.062214,  1.984882 )     1.13949779
  WF centre and spread   48  ( -0.006468, -0.059182,  5.962290 )    13.50377902
  WF centre and spread   49  (  0.000012, -0.049787,  5.954506 )     1.13491058
  WF centre and spread   50  (  0.000018, -0.062261,  5.954410 )     1.13894271
  WF centre and spread   51  (  2.808811,  2.888248,  5.944157 )    13.27384001
  WF centre and spread   52  (  2.806971,  2.856683,  5.954515 )     1.13465556
  WF centre and spread   53  (  2.806922,  2.869265,  5.954399 )     1.13850202
  WF centre and spread   54  (  2.811256,  2.734156,  2.001992 )    13.35960259
  WF centre and spread   55  (  2.806999,  2.757294,  1.984860 )     1.13516982
  WF centre and spread   56  (  2.806979,  2.744868,  1.984848 )     1.13966367
  Sum of centres and spreads (112.414690,112.559882,134.554343 )   532.92623560

      0     0.533E+03     0.0000000000      532.9262356000       0.00  <-- CONV
        O_D=     10.7779720 O_OD=    359.7634221 O_TOT=    532.9262356 <-- SPRD
 ------------------------------------------------------------------------------
 Cycle:      1
  WF centre and spread    1  ( -0.000063, -0.000060,  0.000054 )     1.51021815
  WF centre and spread    2  ( -0.000194,  0.000159, -0.000136 )     1.51301842
  WF centre and spread    3  ( -0.000004,  0.000065, -0.000049 )     1.41576699
  WF centre and spread    4  ( -0.000067,  0.000054,  3.969479 )     1.50728960
  WF centre and spread    5  (  0.000035,  0.000035,  3.969938 )     1.50921109
  WF centre and spread    6  ( -0.000011, -0.000041,  3.969648 )     1.41987274
  WF centre and spread    7  (  2.807070,  2.807103,  3.969565 )     1.51341224
  WF centre and spread    8  (  2.807166,  2.806944,  3.969845 )     1.51031260
  WF centre and spread    9  (  2.806996,  2.806903,  3.969667 )     1.42344195
  WF centre and spread   10  (  2.806929,  2.807030,  0.000123 )     1.50852256
  WF centre and spread   11  (  2.807133,  2.806979,  0.000081 )     1.50520011
  WF centre and spread   12  (  2.806976,  2.806997,  0.000019 )     1.41757619
  WF centre and spread   13  ( -0.082432,  0.049668,  0.108001 )    40.28310597
  WF centre and spread   14  ( -0.021032,  0.017714, -0.191620 )    38.43902937
  WF centre and spread   15  (  0.031025,  0.065879,  4.065286 )    42.10929476
  WF centre and spread   16  (  0.019160,  0.032949,  3.861395 )    38.34754444
  WF centre and spread   17  (  2.908223,  2.828744,  4.046939 )    41.45068627
  WF centre and spread   18  (  2.906758,  2.881926,  3.920280 )    38.29260584
  WF centre and spread   19  (  2.762467,  2.867205,  0.007796 )    39.54100086
  WF centre and spread   20  (  2.814085,  2.729308, -0.114054 )    38.72215857
  WF centre and spread   21  (  1.403525,  4.210531,  0.042973 )     1.13407524
  WF centre and spread   22  (  1.400846,  4.215906,  0.036145 )     5.69077675
  WF centre and spread   23  (  1.396697,  4.214870,  0.026629 )     5.71401310
  WF centre and spread   24  (  1.403513,  1.403509, -0.042916 )     1.13244744
  WF centre and spread   25  (  1.399734,  1.402048, -0.051571 )     5.68002364
  WF centre and spread   26  (  1.401517,  1.401444, -0.043851 )     5.72347596
  WF centre and spread   27  (  4.210445,  1.403446,  4.012658 )     1.13511708
  WF centre and spread   28  (  4.217383,  1.405556,  4.009868 )     5.66979784
  WF centre and spread   29  (  4.220767,  1.410271,  4.002026 )     5.67107254
  WF centre and spread   30  (  4.210434,  4.210456,  3.926634 )     1.13581234
  WF centre and spread   31  (  4.211101,  4.217071,  3.929229 )     5.71721669
  WF centre and spread   32  (  4.211575,  4.214797,  3.936886 )     5.74538633
  WF centre and spread   33  (  4.210468,  1.403517, -0.042495 )     1.13528265
  WF centre and spread   34  (  4.207721,  1.403058, -0.053823 )     5.64034662
  WF centre and spread   35  (  4.206890,  1.404426, -0.047976 )     5.67325046
  WF centre and spread   36  (  4.210464,  4.210463,  0.042466 )     1.13501098
  WF centre and spread   37  (  4.210494,  4.208442,  0.037194 )     5.70872922
  WF centre and spread   38  (  4.209847,  4.209966,  0.027609 )     5.76041989
  WF centre and spread   39  (  1.403475,  4.210445,  3.926351 )     1.13520144
  WF centre and spread   40  (  1.407960,  4.213055,  3.934989 )     5.69617859
  WF centre and spread   41  (  1.406061,  4.211615,  3.941393 )     5.70526054
  WF centre and spread   42  (  1.403487,  1.403489,  4.012954 )     1.13545890
  WF centre and spread   43  (  1.403948,  1.408608,  3.996026 )     5.73833045
  WF centre and spread   44  (  1.405004,  1.406507,  3.989290 )     5.76958600
  WF centre and spread   45  ( -0.006044,  0.076799,  2.011648 )    10.79418277
  WF centre and spread   46  (  0.000080,  0.050283,  1.984837 )     1.09627182
  WF centre and spread   47  (  0.000083,  0.062891,  1.984912 )     1.09768847
  WF centre and spread   48  ( -0.010775, -0.056622,  5.969820 )    10.93706235
  WF centre and spread   49  ( -0.000016, -0.050445,  5.954539 )     1.09621804
  WF centre and spread   50  (  0.000018, -0.062890,  5.954387 )     1.09748629
  WF centre and spread   51  (  2.808175,  2.888782,  5.951902 )    10.66427190
  WF centre and spread   52  (  2.806987,  2.857247,  5.954493 )     1.09527895
  WF centre and spread   53  (  2.806896,  2.869967,  5.954377 )     1.09691026
  WF centre and spread   54  (  2.812076,  2.741787,  2.007913 )    10.70974099
  WF centre and spread   55  (  2.807029,  2.756709,  1.984854 )     1.09521917
  WF centre and spread   56  (  2.806991,  2.744270,  1.984899 )     1.09970118
  Sum of centres and spreads (112.385073,112.597837,134.769531 )   487.20157159

      1    -0.457E+02    12.1701280349      487.2015715921       0.10  <-- CONV
        O_D=      9.6165310 O_OD=    315.2001991 O_TOT=    487.2015716 <-- SPRD
 Delta: O_D= -0.1161441E+01 O_OD= -0.4456322E+02 O_TOT= -0.4572466E+02 <-- DLTA
 ------------------------------------------------------------------------------
 Cycle:    200
  WF centre and spread    1  ( -0.000025, -0.000128, -0.000040 )     1.36048034
  WF centre and spread    2  (  0.000151, -0.000139,  0.000231 )     1.35873440
  WF centre and spread    3  (  0.000009,  0.000223, -0.000005 )     1.34164590
  WF centre and spread    4  ( -0.000198, -0.000220,  3.969925 )     1.36447397
  WF centre and spread    5  (  0.000255, -0.000088,  3.969769 )     1.36106495
  WF centre and spread    6  ( -0.000605,  0.000055,  3.969760 )     1.34532057
  WF centre and spread    7  (  2.807376,  2.807281,  3.969446 )     1.36297010
  WF centre and spread    8  (  2.807178,  2.806712,  3.969830 )     1.36153311
  WF centre and spread    9  (  2.807227,  2.806506,  3.969682 )     1.34337781
  WF centre and spread   10  (  2.807035,  2.807158, -0.000535 )     1.36352821
  WF centre and spread   11  (  2.807091,  2.807014, -0.000235 )     1.36241373
  WF centre and spread   12  (  2.807139,  2.806900,  0.000021 )     1.34234492
  WF centre and spread   13  ( -0.205300,  0.485162,  0.786319 )    28.48506164
  WF centre and spread   14  ( -0.027378,  0.121383, -0.167756 )    32.28796428
  WF centre and spread   15  ( -0.313787,  0.064701,  4.309219 )    31.78339918
  WF centre and spread   16  (  0.129309,  0.466682,  3.861794 )    22.69413538
  WF centre and spread   17  (  3.240561,  3.608346,  3.427993 )    34.00973769
  WF centre and spread   18  (  2.749093,  2.918093,  3.940497 )    23.95459805
  WF centre and spread   19  (  3.036390,  2.689498,  0.528068 )    35.26922949
  WF centre and spread   20  (  2.711895,  2.608214, -0.039949 )    24.62658318
  WF centre and spread   21  (  1.403517,  4.210523,  0.046850 )     1.08867576
  WF centre and spread   22  (  1.404559,  4.210448,  0.035793 )     1.32867291
  WF centre and spread   23  (  1.398233,  4.206983,  0.035438 )     1.35653462
  WF centre and spread   24  (  1.402880,  1.403528, -0.044758 )     1.07898997
  WF centre and spread   25  (  1.388035,  1.401672, -0.035837 )     1.34071850
  WF centre and spread   26  (  1.402344,  1.391135, -0.035655 )     1.35835975
  WF centre and spread   27  (  4.210375,  1.403413,  4.017376 )     1.07432741
  WF centre and spread   28  (  4.206237,  1.399089,  4.003960 )     1.31364016
  WF centre and spread   29  (  4.214049,  1.407788,  4.003591 )     1.31410728
  WF centre and spread   30  (  4.210565,  4.210543,  3.926502 )     1.07395939
  WF centre and spread   31  (  4.208318,  4.219429,  3.934917 )     1.33323123
  WF centre and spread   32  (  4.219658,  4.207383,  3.934957 )     1.32616985
  WF centre and spread   33  (  4.210444,  1.403723, -0.041674 )     1.08122856
  WF centre and spread   34  (  4.214194,  1.399441, -0.035616 )     1.33243505
  WF centre and spread   35  (  4.211655,  1.400099, -0.035745 )     1.34566173
  WF centre and spread   36  (  4.210089,  4.210513,  0.042383 )     1.08435521
  WF centre and spread   37  (  4.216099,  4.218747,  0.035644 )     1.35737644
  WF centre and spread   38  (  4.214381,  4.220598,  0.034446 )     1.36059404
  WF centre and spread   39  (  1.403457,  4.210467,  3.927454 )     1.07255643
  WF centre and spread   40  (  1.405693,  4.214347,  3.934012 )     1.32829816
  WF centre and spread   41  (  1.399718,  4.211832,  3.934423 )     1.33307018
  WF centre and spread   42  (  1.403686,  1.403333,  4.014226 )     1.06932180
  WF centre and spread   43  (  1.403308,  1.403278,  4.005127 )     1.31825686
  WF centre and spread   44  (  1.403911,  1.405274,  4.003450 )     1.32056474
  WF centre and spread   45  ( -0.002588,  0.049776,  1.982428 )     1.65990409
  WF centre and spread   46  (  0.000872,  0.049673,  1.985252 )     1.04580046
  WF centre and spread   47  ( -0.001246,  0.065030,  1.985331 )     1.04596575
  WF centre and spread   48  ( -0.002123, -0.040859,  5.950781 )     1.62359541
  WF centre and spread   49  (  0.000662, -0.052846,  5.954710 )     1.04141713
  WF centre and spread   50  ( -0.000043, -0.063801,  5.954430 )     1.04206576
  WF centre and spread   51  (  2.809820,  2.852808,  5.957714 )     1.70743783
  WF centre and spread   52  (  2.807191,  2.858982,  5.954322 )     1.04064839
  WF centre and spread   53  (  2.807183,  2.872610,  5.954455 )     1.04644867
  WF centre and spread   54  (  2.810447,  2.768561,  1.997521 )     1.66803080
  WF centre and spread   55  (  2.809145,  2.755281,  1.984951 )     1.04138218
  WF centre and spread   56  (  2.806987,  2.744159,  1.985039 )     1.04782509
  Sum of centres and spreads (112.375132,114.036312,135.752231 )   294.38022445

    200     0.725E-01    19.9821321778      294.3802244493      18.15  <-- CONV
        O_D=      4.2411469 O_OD=    127.7542360 O_TOT=    294.3802244 <-- SPRD
 Delta: O_D=  0.7740721E-01 O_OD= -0.4858656E-02 O_TOT=  0.7254856E-01 <-- DLTA
 ------------------------------------------------------------------------------
 Cycle:    400
  WF centre and spread    1  ( -0.000073, -0.000157, -0.000136 )     1.35965041
  WF centre and spread    2  (  0.000135, -0.000127,  0.000127 )     1.35836516
  WF centre and spread    3  ( -0.000049,  0.000226,  0.000003 )     1.34297718
  WF centre and spread    4  ( -0.000208, -0.000225,  3.969967 )     1.36382708
  WF centre and spread    5  (  0.000274, -0.000081,  3.969804 )     1.36083018
  WF centre and spread    6  ( -0.000641, -0.000019,  3.969750 )     1.34633069
  WF centre and spread    7  (  2.807365,  2.807296,  3.969409 )     1.36258655
  WF centre and spread    8  (  2.807112,  2.806751,  3.969842 )     1.36074017
  WF centre and spread    9  (  2.807228,  2.806387,  3.969661 )     1.34481843
  WF centre and spread   10  (  2.807010,  2.807168, -0.000604 )     1.36331525
  WF centre and spread   11  (  2.807097,  2.807015, -0.000151 )     1.36216366
  WF centre and spread   12  (  2.807125,  2.806740,  0.000014 )     1.34355126
  WF centre and spread   13  ( -0.190881,  0.502673,  0.856360 )    28.35901426
  WF centre and spread   14  ( -0.021022,  0.168710, -0.137901 )    33.20550265
  WF centre and spread   15  ( -0.288413, -0.022686,  4.247177 )    30.94588787
  WF centre and spread   16  (  0.126617,  0.523369,  3.847817 )    21.71917573
  WF centre and spread   17  (  3.206828,  3.698872,  3.207955 )    33.50817322
  WF centre and spread   18  (  2.737685,  2.894700,  3.956337 )    22.45018695
  WF centre and spread   19  (  3.069818,  2.715174,  0.542592 )    35.29303887
  WF centre and spread   20  (  2.666864,  2.618143, -0.028785 )    21.49135329
  WF centre and spread   21  (  1.403496,  4.210486,  0.046486 )     1.08897498
  WF centre and spread   22  (  1.403781,  4.211055,  0.035734 )     1.31268995
  WF centre and spread   23  (  1.398113,  4.207380,  0.035383 )     1.33339750
  WF centre and spread   24  (  1.402892,  1.403560, -0.045129 )     1.07820762
  WF centre and spread   25  (  1.386976,  1.399768, -0.035722 )     1.32254311
  WF centre and spread   26  (  1.400855,  1.389690, -0.035594 )     1.33482868
  WF centre and spread   27  (  4.210341,  1.403388,  4.017186 )     1.07053070
  WF centre and spread   28  (  4.206803,  1.399353,  4.003843 )     1.29795163
  WF centre and spread   29  (  4.213958,  1.407205,  4.003581 )     1.29809835
  WF centre and spread   30  (  4.210561,  4.210493,  3.926836 )     1.07124732
  WF centre and spread   31  (  4.208938,  4.219709,  3.934938 )     1.31759666
  WF centre and spread   32  (  4.219684,  4.208338,  3.935084 )     1.31038609
  WF centre and spread   33  (  4.210449,  1.403670, -0.041490 )     1.08066225
  WF centre and spread   34  (  4.214467,  1.398612, -0.035513 )     1.31176847
  WF centre and spread   35  (  4.212549,  1.399443, -0.035503 )     1.32066927
  WF centre and spread   36  (  4.209996,  4.210516,  0.041270 )     1.08476251
  WF centre and spread   37  (  4.216277,  4.219422,  0.035525 )     1.34185064
  WF centre and spread   38  (  4.215261,  4.221190,  0.034442 )     1.33904974
  WF centre and spread   39  (  1.403410,  4.210446,  3.927907 )     1.06899963
  WF centre and spread   40  (  1.405389,  4.214529,  3.933893 )     1.30999278
  WF centre and spread   41  (  1.399862,  4.211784,  3.934481 )     1.31452785
  WF centre and spread   42  (  1.403737,  1.403340,  4.013903 )     1.06552695
  WF centre and spread   43  (  1.403060,  1.402809,  4.005181 )     1.30555562
  WF centre and spread   44  (  1.403797,  1.404882,  4.003646 )     1.30474416
  WF centre and spread   45  ( -0.001703,  0.048190,  1.978409 )     1.59870216
  WF centre and spread   46  (  0.000826,  0.049444,  1.985277 )     1.04652932
  WF centre and spread   47  ( -0.001391,  0.064989,  1.985369 )     1.04568396
  WF centre and spread   48  ( -0.001482, -0.041320,  5.951722 )     1.56635625
  WF centre and spread   49  (  0.001008, -0.052747,  5.954704 )     1.04027802
  WF centre and spread   50  ( -0.000188, -0.063011,  5.954420 )     1.04013407
  WF centre and spread   51  (  2.809331,  2.852195,  5.959605 )     1.64482689
  WF centre and spread   52  (  2.807300,  2.858904,  5.954365 )     1.03940607
  WF centre and spread   53  (  2.807202,  2.872782,  5.954506 )     1.04530282
  WF centre and spread   54  (  2.809739,  2.768013,  1.995064 )     1.58774214
  WF centre and spread   55  (  2.808973,  2.755560,  1.984985 )     1.03990390
  WF centre and spread   56  (  2.807094,  2.744762,  1.985024 )     1.04703791
  Sum of centres and spreads (112.361232,114.168763,135.593054 )   287.66795483

    400    -0.275E-01     6.9532017440      287.6679548310      36.32  <-- CONV
        O_D=      3.9037302 O_OD=    121.3793831 O_TOT=    287.6679548 <-- SPRD
 Delta: O_D=  0.1527748E-02 O_OD= -0.2902913E-01 O_TOT= -0.2750138E-01 <-- DLTA
 ------------------------------------------------------------------------------
 Cycle:    600
  WF centre and spread    1  ( -0.000115, -0.000170, -0.000216 )     1.35885748
  WF centre and spread    2  (  0.000109, -0.000110, -0.000017 )     1.35808828
  WF centre and spread    3  ( -0.000074,  0.000187,  0.000010 )     1.34463804
  WF centre and spread    4  ( -0.000213, -0.000210,  3.969970 )     1.36306265
  WF centre and spread    5  (  0.000284, -0.000085,  3.969828 )     1.36063408
  WF centre and spread    6  ( -0.000661, -0.000103,  3.969740 )     1.34764701
  WF centre and spread    7  (  2.807326,  2.807279,  3.969400 )     1.36184336
  WF centre and spread    8  (  2.807037,  2.806808,  3.969877 )     1.35988924
  WF centre and spread    9  (  2.807244,  2.806267,  3.969645 )     1.34644185
  WF centre and spread   10  (  2.806993,  2.807173, -0.000641 )     1.36294484
  WF centre and spread   11  (  2.807075,  2.807049, -0.000065 )     1.36202270
  WF centre and spread   12  (  2.807143,  2.806579,  0.000012 )     1.34524117
  WF centre and spread   13  ( -0.204464,  0.511436,  0.897705 )    28.15194497
  WF centre and spread   14  ( -0.030294,  0.203464, -0.104600 )    33.91441082
  WF centre and spread   15  ( -0.281069, -0.093787,  4.204267 )    30.10014717
  WF centre and spread   16  (  0.132802,  0.574741,  3.853192 )    20.71950799
  WF centre and spread   17  (  3.189626,  3.784072,  3.000515 )    32.99344785
  WF centre and spread   18  (  2.737572,  2.869587,  3.976585 )    21.44728019
  WF centre and spread   19  (  3.079331,  2.719073,  0.566102 )    35.23246925
  WF centre and spread   20  (  2.648287,  2.636772, -0.023984 )    19.09773245
  WF centre and spread   21  (  1.403495,  4.210456,  0.046151 )     1.08895916
  WF centre and spread   22  (  1.402956,  4.211775,  0.035669 )     1.29881201
  WF centre and spread   23  (  1.397957,  4.207901,  0.035330 )     1.31411786
  WF centre and spread   24  (  1.402938,  1.403566, -0.045481 )     1.07707644
  WF centre and spread   25  (  1.386040,  1.397666, -0.035652 )     1.30595844
  WF centre and spread   26  (  1.399276,  1.388356, -0.035555 )     1.31463014
  WF centre and spread   27  (  4.210307,  1.403369,  4.016974 )     1.06756067
  WF centre and spread   28  (  4.207295,  1.399589,  4.003856 )     1.28702183
  WF centre and spread   29  (  4.214010,  1.406795,  4.003593 )     1.28743315
  WF centre and spread   30  (  4.210556,  4.210468,  3.927080 )     1.06922446
  WF centre and spread   31  (  4.209612,  4.219984,  3.934879 )     1.30674294
  WF centre and spread   32  (  4.219811,  4.209284,  3.935099 )     1.30020699
  WF centre and spread   33  (  4.210459,  1.403601, -0.041302 )     1.07969180
  WF centre and spread   34  (  4.214818,  1.397916, -0.035413 )     1.29324261
  WF centre and spread   35  (  4.213398,  1.398648, -0.035305 )     1.29983522
  WF centre and spread   36  (  4.209965,  4.210524,  0.040256 )     1.08476587
  WF centre and spread   37  (  4.216646,  4.220113,  0.035511 )     1.32747086
  WF centre and spread   38  (  4.216151,  4.221797,  0.034502 )     1.32086089
  WF centre and spread   39  (  1.403380,  4.210436,  3.928426 )     1.06592197
  WF centre and spread   40  (  1.405244,  4.214693,  3.933827 )     1.29710902
  WF centre and spread   41  (  1.399877,  4.211631,  3.934585 )     1.30123154
  WF centre and spread   42  (  1.403780,  1.403367,  4.013623 )     1.06271472
  WF centre and spread   43  (  1.402829,  1.402355,  4.005244 )     1.29699399
  WF centre and spread   44  (  1.403748,  1.404442,  4.003886 )     1.29387037
  WF centre and spread   45  ( -0.001193,  0.046999,  1.976307 )     1.55323017
  WF centre and spread   46  (  0.000807,  0.049311,  1.985256 )     1.04730825
  WF centre and spread   47  ( -0.001526,  0.064997,  1.985363 )     1.04543798
  WF centre and spread   48  ( -0.001162, -0.041652,  5.952565 )     1.52851463
  WF centre and spread   49  (  0.001285, -0.052660,  5.954705 )     1.04002514
  WF centre and spread   50  ( -0.000373, -0.062293,  5.954402 )     1.03885282
  WF centre and spread   51  (  2.809005,  2.851794,  5.960911 )     1.60498528
  WF centre and spread   52  (  2.807422,  2.858879,  5.954416 )     1.03830526
  WF centre and spread   53  (  2.807161,  2.872884,  5.954549 )     1.04425682
  WF centre and spread   54  (  2.809098,  2.767430,  1.993547 )     1.53245026
  WF centre and spread   55  (  2.808730,  2.755873,  1.985015 )     1.03823743
  WF centre and spread   56  (  2.807140,  2.745380,  1.984998 )     1.04640623
  Sum of centres and spreads (112.324882,114.271696,135.469143 )   281.92771462

    600    -0.807E-01     7.5569489318      281.9277146189      54.65  <-- CONV
        O_D=      3.7116879 O_OD=    115.8311852 O_TOT=    281.9277146 <-- SPRD
 Delta: O_D=  0.2672595E-01 O_OD= -0.1074317E+00 O_TOT= -0.8070580E-01 <-- DLTA
 ------------------------------------------------------------------------------
 Cycle:    800
  WF centre and spread    1  ( -0.000143, -0.000175, -0.000265 )     1.35855051
  WF centre and spread    2  (  0.000087, -0.000103, -0.000079 )     1.35818208
  WF centre and spread    3  ( -0.000082,  0.000135,  0.000007 )     1.34579247
  WF centre and spread    4  ( -0.000210, -0.000185,  3.969961 )     1.36251450
  WF centre and spread    5  (  0.000266, -0.000075,  3.969828 )     1.36042246
  WF centre and spread    6  ( -0.000659, -0.000155,  3.969727 )     1.34863568
  WF centre and spread    7  (  2.807290,  2.807248,  3.969415 )     1.36123647
  WF centre and spread    8  (  2.807000,  2.806838,  3.969896 )     1.35920887
  WF centre and spread    9  (  2.807265,  2.806188,  3.969638 )     1.34755664
  WF centre and spread   10  (  2.806979,  2.807176, -0.000643 )     1.36268182
  WF centre and spread   11  (  2.807057,  2.807082, -0.000022 )     1.36204159
  WF centre and spread   12  (  2.807168,  2.806462,  0.000016 )     1.34652614
  WF centre and spread   13  ( -0.190435,  0.515675,  0.886967 )    27.89367416
  WF centre and spread   14  ( -0.037189,  0.225332, -0.065976 )    34.22398872
  WF centre and spread   15  ( -0.290620, -0.146636,  4.200131 )    29.52399441
  WF centre and spread   16  (  0.150332,  0.607218,  3.874683 )    20.01247449
  WF centre and spread   17  (  3.172238,  3.844901,  2.858969 )    32.63627675
  WF centre and spread   18  (  2.734178,  2.851469,  3.990252 )    20.87087373
  WF centre and spread   19  (  3.097851,  2.714000,  0.570751 )    35.25437634
  WF centre and spread   20  (  2.648496,  2.644362, -0.020100 )    17.64913415
  WF centre and spread   21  (  1.403532,  4.210434,  0.045907 )     1.08917258
  WF centre and spread   22  (  1.402169,  4.212447,  0.035602 )     1.28784215
  WF centre and spread   23  (  1.397757,  4.208530,  0.035318 )     1.30037697
  WF centre and spread   24  (  1.402978,  1.403549, -0.045610 )     1.07640945
  WF centre and spread   25  (  1.385292,  1.395756, -0.035611 )     1.29314840
  WF centre and spread   26  (  1.397863,  1.387246, -0.035526 )     1.30064513
  WF centre and spread   27  (  4.210281,  1.403358,  4.016785 )     1.06543241
  WF centre and spread   28  (  4.207585,  1.399768,  4.003988 )     1.28056047
  WF centre and spread   29  (  4.214056,  1.406573,  4.003768 )     1.28137506
  WF centre and spread   30  (  4.210563,  4.210459,  3.927182 )     1.06774624
  WF centre and spread   31  (  4.210147,  4.220149,  3.934829 )     1.30018884
  WF centre and spread   32  (  4.219927,  4.209986,  3.935095 )     1.29463710
  WF centre and spread   33  (  4.210469,  1.403580, -0.041150 )     1.07922897
  WF centre and spread   34  (  4.215226,  1.397345, -0.035379 )     1.27960816
  WF centre and spread   35  (  4.214072,  1.397863, -0.035189 )     1.28651325
  WF centre and spread   36  (  4.209973,  4.210526,  0.039650 )     1.08452164
  WF centre and spread   37  (  4.217093,  4.220777,  0.035540 )     1.31533684
  WF centre and spread   38  (  4.216988,  4.222327,  0.034593 )     1.30817532
  WF centre and spread   39  (  1.403374,  4.210428,  3.928839 )     1.06349913
  WF centre and spread   40  (  1.405152,  4.214759,  3.933804 )     1.28967825
  WF centre and spread   41  (  1.399925,  4.211475,  3.934660 )     1.29331052
  WF centre and spread   42  (  1.403789,  1.403387,  4.013337 )     1.06083538
  WF centre and spread   43  (  1.402608,  1.401963,  4.005238 )     1.29127773
  WF centre and spread   44  (  1.403667,  1.404084,  4.004035 )     1.28719783
  WF centre and spread   45  ( -0.000886,  0.046278,  1.975317 )     1.52520901
  WF centre and spread   46  (  0.000816,  0.049262,  1.985250 )     1.04771992
  WF centre and spread   47  ( -0.001611,  0.065024,  1.985355 )     1.04531365
  WF centre and spread   48  ( -0.001012, -0.041906,  5.953240 )     1.50423809
  WF centre and spread   49  (  0.001482, -0.052606,  5.954715 )     1.04010527
  WF centre and spread   50  ( -0.000514, -0.061771,  5.954384 )     1.03818521
  WF centre and spread   51  (  2.808693,  2.851599,  5.961618 )     1.58013385
  WF centre and spread   52  (  2.807538,  2.858863,  5.954440 )     1.03707178
  WF centre and spread   53  (  2.807107,  2.872910,  5.954571 )     1.04353464
  WF centre and spread   54  (  2.808653,  2.766962,  1.992642 )     1.49778180
  WF centre and spread   55  (  2.808557,  2.756144,  1.985040 )     1.03649947
  WF centre and spread   56  (  2.807120,  2.745852,  1.984986 )     1.04600720
  Sum of centres and spreads (112.337296,114.320138,135.394419 )   278.05665971

    800     0.110E+00    11.1896825260      278.0566597108      72.86  <-- CONV
        O_D=      3.5775445 O_OD=    112.0942737 O_TOT=    278.0566597 <-- SPRD
 Delta: O_D=  0.1198551E+00 O_OD= -0.9694893E-02 O_TOT=  0.1101602E+00 <-- DLTA
 ------------------------------------------------------------------------------
 Cycle:   1000
  WF centre and spread    1  ( -0.000166, -0.000182, -0.000314 )     1.35852365
  WF centre and spread    2  (  0.000083, -0.000108, -0.000108 )     1.35844610
  WF centre and spread    3  ( -0.000093,  0.000093,  0.000002 )     1.34689174
  WF centre and spread    4  ( -0.000201, -0.000157,  3.969940 )     1.36225445
  WF centre and spread    5  (  0.000252, -0.000073,  3.969816 )     1.36040301
  WF centre and spread    6  ( -0.000639, -0.000188,  3.969717 )     1.34956289
  WF centre and spread    7  (  2.807261,  2.807215,  3.969445 )     1.36107000
  WF centre and spread    8  (  2.806963,  2.806879,  3.969904 )     1.35881172
  WF centre and spread    9  (  2.807285,  2.806114,  3.969627 )     1.34863741
  WF centre and spread   10  (  2.806974,  2.807190, -0.000641 )     1.36274878
  WF centre and spread   11  (  2.807029,  2.807127,  0.000007 )     1.36211576
  WF centre and spread   12  (  2.807192,  2.806358,  0.000018 )     1.34771663
  WF centre and spread   13  ( -0.193448,  0.509103,  0.928257 )    27.53775593
  WF centre and spread   14  ( -0.034098,  0.238208, -0.032936 )    34.52451897
  WF centre and spread   15  ( -0.274075, -0.195217,  4.171264 )    29.18250880
  WF centre and spread   16  (  0.179080,  0.638280,  3.892039 )    19.57860281
  WF centre and spread   17  (  3.155616,  3.911791,  2.722489 )    32.32139000
  WF centre and spread   18  (  2.732550,  2.828423,  3.998969 )    20.32553174
  WF centre and spread   19  (  3.077704,  2.727827,  0.555285 )    35.24253112
  WF centre and spread   20  (  2.648755,  2.658578, -0.016498 )    16.62648198
  WF centre and spread   21  (  1.403573,  4.210429,  0.045683 )     1.08966525
  WF centre and spread   22  (  1.401428,  4.213097,  0.035574 )     1.27976377
  WF centre and spread   23  (  1.397633,  4.209219,  0.035306 )     1.28917435
  WF centre and spread   24  (  1.403031,  1.403537, -0.045630 )     1.07642675
  WF centre and spread   25  (  1.384669,  1.393989, -0.035536 )     1.28395160
  WF centre and spread   26  (  1.396534,  1.386273, -0.035498 )     1.29044855
  WF centre and spread   27  (  4.210266,  1.403351,  4.016531 )     1.06372278
  WF centre and spread   28  (  4.207883,  1.399875,  4.004147 )     1.27537062
  WF centre and spread   29  (  4.214071,  1.406343,  4.003974 )     1.27722491
  WF centre and spread   30  (  4.210567,  4.210465,  3.927251 )     1.06681663
  WF centre and spread   31  (  4.210718,  4.220282,  3.934789 )     1.29615992
  WF centre and spread   32  (  4.220086,  4.210687,  3.935060 )     1.29092031
  WF centre and spread   33  (  4.210487,  1.403565, -0.040996 )     1.07936487
  WF centre and spread   34  (  4.215618,  1.396859, -0.035371 )     1.27042476
  WF centre and spread   35  (  4.214602,  1.397146, -0.035108 )     1.27652439
  WF centre and spread   36  (  4.209990,  4.210509,  0.039225 )     1.08454009
  WF centre and spread   37  (  4.217570,  4.221424,  0.035572 )     1.30604666
  WF centre and spread   38  (  4.217816,  4.222839,  0.034678 )     1.29811919
  WF centre and spread   39  (  1.403372,  4.210423,  3.929144 )     1.06175216
  WF centre and spread   40  (  1.405060,  4.214840,  3.933797 )     1.28474026
  WF centre and spread   41  (  1.399948,  4.211334,  3.934734 )     1.28767807
  WF centre and spread   42  (  1.403793,  1.403414,  4.013057 )     1.05958502
  WF centre and spread   43  (  1.402357,  1.401496,  4.005203 )     1.28693220
  WF centre and spread   44  (  1.403547,  1.403665,  4.004157 )     1.28241087
  WF centre and spread   45  ( -0.000619,  0.045750,  1.974609 )     1.50200350
  WF centre and spread   46  (  0.000847,  0.049269,  1.985241 )     1.04848838
  WF centre and spread   47  ( -0.001689,  0.065115,  1.985337 )     1.04497678
  WF centre and spread   48  ( -0.000902, -0.042146,  5.953984 )     1.48399747
  WF centre and spread   49  (  0.001674, -0.052553,  5.954720 )     1.04045866
  WF centre and spread   50  ( -0.000630, -0.061284,  5.954369 )     1.03750158
  WF centre and spread   51  (  2.808282,  2.851462,  5.962194 )     1.56133973
  WF centre and spread   52  (  2.807667,  2.858862,  5.954463 )     1.03620290
  WF centre and spread   53  (  2.807062,  2.872923,  5.954581 )     1.04285396
  WF centre and spread   54  (  2.808280,  2.766623,  1.991718 )     1.47193104
  WF centre and spread   55  (  2.808407,  2.756390,  1.985052 )     1.03530713
  WF centre and spread   56  (  2.807089,  2.746289,  1.984966 )     1.04580215
  Sum of centres and spreads (112.344111,114.379019,135.317256 )   275.12513076

   1000    -0.497E-01     5.4479162721      275.1251307625      90.97  <-- CONV
        O_D=      3.2177575 O_OD=    109.5225318 O_TOT=    275.1251308 <-- SPRD
 Delta: O_D=  0.6721516E-03 O_OD= -0.5040600E-01 O_TOT= -0.4973385E-01 <-- DLTA
 ------------------------------------------------------------------------------
 Cycle:   1200
  WF centre and spread    1  ( -0.000176, -0.000192, -0.000384 )     1.35869150
  WF centre and spread    2  (  0.000082, -0.000112, -0.000111 )     1.35881423
  WF centre and spread    3  ( -0.000107,  0.000058, -0.000001 )     1.34776429
  WF centre and spread    4  ( -0.000190, -0.000138,  3.969912 )     1.36228158
  WF centre and spread    5  (  0.000231, -0.000061,  3.969800 )     1.36034225
  WF centre and spread    6  ( -0.000620, -0.000211,  3.969709 )     1.35025051
  WF centre and spread    7  (  2.807240,  2.807197,  3.969466 )     1.36107560
  WF centre and spread    8  (  2.806936,  2.806915,  3.969920 )     1.35866766
  WF centre and spread    9  (  2.807305,  2.806050,  3.969622 )     1.34944094
  WF centre and spread   10  (  2.806985,  2.807204, -0.000651 )     1.36279388
  WF centre and spread   11  (  2.807002,  2.807153,  0.000033 )     1.36224461
  WF centre and spread   12  (  2.807220,  2.806280,  0.000019 )     1.34869716
  WF centre and spread   13  ( -0.187707,  0.510720,  0.939006 )    27.38658860
  WF centre and spread   14  ( -0.031407,  0.241850, -0.008654 )    34.70746883
  WF centre and spread   15  ( -0.267325, -0.237000,  4.156867 )    28.93482782
  WF centre and spread   16  (  0.215639,  0.671601,  3.919725 )    19.06422090
  WF centre and spread   17  (  3.119653,  3.967282,  2.614566 )    31.97003882
  WF centre and spread   18  (  2.729326,  2.813143,  4.008522 )    19.96913920
  WF centre and spread   19  (  3.056504,  2.754869,  0.542236 )    35.20607781
  WF centre and spread   20  (  2.650785,  2.667022, -0.012975 )    15.89113020
  WF centre and spread   21  (  1.403594,  4.210413,  0.045422 )     1.08999524
  WF centre and spread   22  (  1.400661,  4.213736,  0.035563 )     1.27449221
  WF centre and spread   23  (  1.397414,  4.209921,  0.035310 )     1.28145628
  WF centre and spread   24  (  1.403083,  1.403533, -0.045657 )     1.07645638
  WF centre and spread   25  (  1.384033,  1.392305, -0.035491 )     1.27784988
  WF centre and spread   26  (  1.395217,  1.385399, -0.035466 )     1.28389788
  WF centre and spread   27  (  4.210250,  1.403342,  4.016316 )     1.06223846
  WF centre and spread   28  (  4.208165,  1.399940,  4.004310 )     1.27147820
  WF centre and spread   29  (  4.214101,  1.406158,  4.004186 )     1.27394759
  WF centre and spread   30  (  4.210584,  4.210464,  3.927228 )     1.06679589
  WF centre and spread   31  (  4.211285,  4.220391,  3.934758 )     1.29361922
  WF centre and spread   32  (  4.220265,  4.211327,  3.935035 )     1.28835637
  WF centre and spread   33  (  4.210492,  1.403559, -0.040825 )     1.07976928
  WF centre and spread   34  (  4.216056,  1.396358, -0.035354 )     1.26476424
  WF centre and spread   35  (  4.215161,  1.396442, -0.035060 )     1.26973463
  WF centre and spread   36  (  4.210006,  4.210491,  0.038805 )     1.08426141
  WF centre and spread   37  (  4.218140,  4.222156,  0.035588 )     1.29896941
  WF centre and spread   38  (  4.218717,  4.223400,  0.034754 )     1.29110662
  WF centre and spread   39  (  1.403388,  4.210421,  3.929427 )     1.06034270
  WF centre and spread   40  (  1.404924,  4.214969,  3.933836 )     1.28085319
  WF centre and spread   41  (  1.399954,  4.211239,  3.934834 )     1.28337014
  WF centre and spread   42  (  1.403765,  1.403446,  4.012765 )     1.05900834
  WF centre and spread   43  (  1.402148,  1.401093,  4.005171 )     1.28326795
  WF centre and spread   44  (  1.403400,  1.403320,  4.004244 )     1.27799343
  WF centre and spread   45  ( -0.000421,  0.045367,  1.974179 )     1.48408550
  WF centre and spread   46  (  0.000897,  0.049319,  1.985222 )     1.04907778
  WF centre and spread   47  ( -0.001754,  0.065189,  1.985296 )     1.04479325
  WF centre and spread   48  ( -0.000821, -0.042376,  5.954844 )     1.47000206
  WF centre and spread   49  (  0.001840, -0.052508,  5.954718 )     1.04079536
  WF centre and spread   50  ( -0.000733, -0.060879,  5.954363 )     1.03725462
  WF centre and spread   51  (  2.807942,  2.851359,  5.962589 )     1.54482735
  WF centre and spread   52  (  2.807818,  2.858865,  5.954471 )     1.03550432
  WF centre and spread   53  (  2.807046,  2.872916,  5.954589 )     1.04237772
  WF centre and spread   54  (  2.807951,  2.766291,  1.991064 )     1.45236929
  WF centre and spread   55  (  2.808317,  2.756629,  1.985056 )     1.03445773
  WF centre and spread   56  (  2.807050,  2.746634,  1.984945 )     1.04592077
  Sum of centres and spreads (112.337310,114.450262,135.257661 )   272.76604707

   1200    -0.106E-01     4.1891305165      272.7660470661     109.07  <-- CONV
        O_D=      3.0502759 O_OD=    107.3309297 O_TOT=    272.7660471 <-- SPRD
 Delta: O_D= -0.4234101E-02 O_OD= -0.6369688E-02 O_TOT= -0.1060379E-01 <-- DLTA
 ------------------------------------------------------------------------------
 Cycle:   1400
  WF centre and spread    1  ( -0.000185, -0.000198, -0.000424 )     1.35885971
  WF centre and spread    2  (  0.000072, -0.000109, -0.000114 )     1.35904131
  WF centre and spread    3  ( -0.000112,  0.000031, -0.000001 )     1.34847228
  WF centre and spread    4  ( -0.000180, -0.000125,  3.969872 )     1.36215247
  WF centre and spread    5  (  0.000208, -0.000044,  3.969782 )     1.36036321
  WF centre and spread    6  ( -0.000597, -0.000232,  3.969706 )     1.35083287
  WF centre and spread    7  (  2.807221,  2.807185,  3.969476 )     1.36087037
  WF centre and spread    8  (  2.806918,  2.806941,  3.969946 )     1.35869862
  WF centre and spread    9  (  2.807318,  2.805992,  3.969619 )     1.35016467
  WF centre and spread   10  (  2.806991,  2.807217, -0.000634 )     1.36289129
  WF centre and spread   11  (  2.806988,  2.807174,  0.000046 )     1.36236977
  WF centre and spread   12  (  2.807236,  2.806215,  0.000020 )     1.34960559
  WF centre and spread   13  ( -0.202846,  0.511047,  0.923990 )    27.25573821
  WF centre and spread   14  ( -0.019980,  0.248228,  0.011561 )    34.84174917
  WF centre and spread   15  ( -0.252185, -0.268377,  4.128553 )    28.89880922
  WF centre and spread   16  (  0.241695,  0.693751,  3.948284 )    18.57221416
  WF centre and spread   17  (  3.072792,  4.014356,  2.520572 )    31.78639990
  WF centre and spread   18  (  2.728429,  2.803309,  4.018392 )    19.63920479
  WF centre and spread   19  (  3.047234,  2.826588,  0.504151 )    35.63496731
  WF centre and spread   20  (  2.655081,  2.674579, -0.010250 )    15.35437212
  WF centre and spread   21  (  1.403628,  4.210395,  0.045218 )     1.08985417
  WF centre and spread   22  (  1.399975,  4.214340,  0.035557 )     1.27134438
  WF centre and spread   23  (  1.397159,  4.210569,  0.035311 )     1.27650972
  WF centre and spread   24  (  1.403132,  1.403540, -0.045460 )     1.07625133
  WF centre and spread   25  (  1.383441,  1.390828, -0.035441 )     1.27413803
  WF centre and spread   26  (  1.394036,  1.384631, -0.035450 )     1.27964449
  WF centre and spread   27  (  4.210255,  1.403349,  4.016073 )     1.06095185
  WF centre and spread   28  (  4.208447,  1.399977,  4.004446 )     1.26847853
  WF centre and spread   29  (  4.214110,  1.405983,  4.004354 )     1.27159510
  WF centre and spread   30  (  4.210586,  4.210468,  3.927188 )     1.06543791
  WF centre and spread   31  (  4.211775,  4.220526,  3.934744 )     1.29282684
  WF centre and spread   32  (  4.220457,  4.211853,  3.935021 )     1.28750292
  WF centre and spread   33  (  4.210500,  1.403546, -0.040618 )     1.07966920
  WF centre and spread   34  (  4.216449,  1.395941, -0.035351 )     1.26093195
  WF centre and spread   35  (  4.215666,  1.395801, -0.035036 )     1.26540795
  WF centre and spread   36  (  4.210021,  4.210463,  0.038672 )     1.08407049
  WF centre and spread   37  (  4.218718,  4.222877,  0.035601 )     1.29460188
  WF centre and spread   38  (  4.219593,  4.223954,  0.034799 )     1.28671094
  WF centre and spread   39  (  1.403386,  4.210412,  3.929582 )     1.05942685
  WF centre and spread   40  (  1.404838,  4.215102,  3.933905 )     1.27809593
  WF centre and spread   41  (  1.399974,  4.211140,  3.934915 )     1.28023127
  WF centre and spread   42  (  1.403757,  1.403467,  4.012467 )     1.05779149
  WF centre and spread   43  (  1.401943,  1.400685,  4.005159 )     1.28031315
  WF centre and spread   44  (  1.403227,  1.403006,  4.004346 )     1.27494060
  WF centre and spread   45  ( -0.000289,  0.045115,  1.973881 )     1.47057719
  WF centre and spread   46  (  0.000965,  0.049375,  1.985203 )     1.04962833
  WF centre and spread   47  ( -0.001802,  0.065246,  1.985263 )     1.04513353
  WF centre and spread   48  ( -0.000751, -0.042542,  5.955459 )     1.45709039
  WF centre and spread   49  (  0.001998, -0.052461,  5.954700 )     1.04104591
  WF centre and spread   50  ( -0.000822, -0.060506,  5.954351 )     1.03755667
  WF centre and spread   51  (  2.807692,  2.851271,  5.962907 )     1.53641338
  WF centre and spread   52  (  2.807951,  2.858880,  5.954474 )     1.03494326
  WF centre and spread   53  (  2.807029,  2.872934,  5.954583 )     1.04218673
  WF centre and spread   54  (  2.807689,  2.766032,  1.990642 )     1.44022279
  WF centre and spread   55  (  2.808242,  2.756832,  1.985055 )     1.03396373
  WF centre and spread   56  (  2.807027,  2.746900,  1.984944 )     1.04629312
  Sum of centres and spreads (112.322101,114.563458,135.144008 )   271.51955904

   1400     0.131E+00    31.0270988130      271.5195590381     127.44  <-- CONV
        O_D=      3.5164230 O_OD=    105.6182945 O_TOT=    271.5195590 <-- SPRD
 Delta: O_D=  0.9896382E-01 O_OD=  0.3243891E-01 O_TOT=  0.1314027E+00 <-- DLTA
 ------------------------------------------------------------------------------
 Cycle:   1600
  WF centre and spread    1  ( -0.000170, -0.000201, -0.000462 )     1.35921905
  WF centre and spread    2  (  0.000080, -0.000116, -0.000101 )     1.35930583
  WF centre and spread    3  ( -0.000120,  0.000000, -0.000006 )     1.34906074
  WF centre and spread    4  ( -0.000150, -0.000104,  3.969853 )     1.36236724
  WF centre and spread    5  (  0.000195, -0.000036,  3.969773 )     1.36046669
  WF centre and spread    6  ( -0.000573, -0.000269,  3.969706 )     1.35134439
  WF centre and spread    7  (  2.807209,  2.807175,  3.969497 )     1.36103424
  WF centre and spread    8  (  2.806902,  2.806959,  3.969970 )     1.35901785
  WF centre and spread    9  (  2.807331,  2.805926,  3.969621 )     1.35079330
  WF centre and spread   10  (  2.806999,  2.807226, -0.000610 )     1.36312888
  WF centre and spread   11  (  2.806979,  2.807178,  0.000049 )     1.36253163
  WF centre and spread   12  (  2.807254,  2.806148,  0.000020 )     1.35041976
  WF centre and spread   13  ( -0.222918,  0.504614,  0.924814 )    27.16932356
  WF centre and spread   14  ( -0.020069,  0.242811,  0.031228 )    34.90630674
  WF centre and spread   15  ( -0.248477, -0.295874,  4.141947 )    28.74397463
  WF centre and spread   16  (  0.262574,  0.711480,  3.972671 )    18.16848388
  WF centre and spread   17  (  3.093114,  4.035101,  2.481387 )    31.52737920
  WF centre and spread   18  (  2.728341,  2.792436,  4.029533 )    19.36728592
  WF centre and spread   19  (  3.011553,  2.764283,  0.510864 )    35.36720516
  WF centre and spread   20  (  2.660370,  2.681023, -0.008465 )    14.91602726
  WF centre and spread   21  (  1.403659,  4.210380,  0.044964 )     1.09023565
  WF centre and spread   22  (  1.399319,  4.214947,  0.035541 )     1.26915557
  WF centre and spread   23  (  1.396872,  4.211242,  0.035299 )     1.27244801
  WF centre and spread   24  (  1.403181,  1.403547, -0.045212 )     1.07614027
  WF centre and spread   25  (  1.382811,  1.389363, -0.035406 )     1.27149077
  WF centre and spread   26  (  1.392824,  1.383883, -0.035433 )     1.27666171
  WF centre and spread   27  (  4.210258,  1.403350,  4.015892 )     1.05964363
  WF centre and spread   28  (  4.208742,  1.399996,  4.004635 )     1.26637522
  WF centre and spread   29  (  4.214091,  1.405790,  4.004527 )     1.27013424
  WF centre and spread   30  (  4.210601,  4.210458,  3.927122 )     1.06540793
  WF centre and spread   31  (  4.212232,  4.220571,  3.934761 )     1.29213232
  WF centre and spread   32  (  4.220627,  4.212357,  3.935030 )     1.28659643
[...]
  WF centre and spread   13  ( -0.912883,  0.352763,  0.467833 )    22.81853178
  WF centre and spread   14  (  0.021224,  0.228317,  0.121205 )    34.32152757
  WF centre and spread   15  (  0.438887, -1.121845,  4.040726 )    27.74924747
  WF centre and spread   16  (  0.279900,  0.547305,  3.996169 )    16.35886615
  WF centre and spread   17  (  2.980916,  5.206053,  1.952739 )    29.03654741
  WF centre and spread   18  (  2.685737,  2.506397,  3.992766 )    15.36334088
  WF centre and spread   19  (  2.702243,  3.029173,  0.107212 )    34.26874618
  WF centre and spread   20  (  2.782579,  2.775068,  0.004393 )    12.44687269
  WF centre and spread   21  (  1.403663,  4.210354,  0.040138 )     1.07474766
  WF centre and spread   22  (  1.386114,  4.229448,  0.035601 )     1.28311126
  WF centre and spread   23  (  1.384129,  4.227013,  0.035524 )     1.27951414
  WF centre and spread   24  (  1.403594,  1.403554, -0.040674 )     1.07274876
  WF centre and spread   25  (  1.374140,  1.372712, -0.035192 )     1.31761204
  WF centre and spread   26  (  1.374192,  1.374470, -0.035444 )     1.31481356
  WF centre and spread   27  (  4.210346,  1.403443,  4.011360 )     1.05316642
  WF centre and spread   28  (  4.211716,  1.401128,  4.005150 )     1.27068163
  WF centre and spread   29  (  4.215120,  1.402001,  4.005012 )     1.28178391
  WF centre and spread   30  (  4.210414,  4.210404,  3.927709 )     1.05745862
  WF centre and spread   31  (  4.214877,  4.217451,  3.934319 )     1.31317535
  WF centre and spread   32  (  4.224335,  4.217931,  3.934540 )     1.30716981
  WF centre and spread   33  (  4.210350,  1.403590, -0.039797 )     1.07307025
  WF centre and spread   34  (  4.227469,  1.386890, -0.035458 )     1.27042824
  WF centre and spread   35  (  4.230005,  1.382375, -0.035496 )     1.27640339
  WF centre and spread   36  (  4.210274,  4.210276,  0.041276 )     1.07099328
  WF centre and spread   37  (  4.233265,  4.235035,  0.035716 )     1.30770869
  WF centre and spread   38  (  4.240071,  4.237829,  0.035488 )     1.30237319
  WF centre and spread   39  (  1.403562,  4.210451,  3.929005 )     1.05482990
  WF centre and spread   40  (  1.403863,  4.215651,  3.934083 )     1.28279259
  WF centre and spread   41  (  1.398097,  4.209443,  3.934434 )     1.27487136
  WF centre and spread   42  (  1.403481,  1.403523,  4.010088 )     1.05477952
  WF centre and spread   43  (  1.392571,  1.385221,  4.004894 )     1.28260586
  WF centre and spread   44  (  1.387767,  1.392534,  4.005083 )     1.28619013
  WF centre and spread   45  (  0.000364,  0.044837,  1.977804 )     1.38449745
  WF centre and spread   46  (  0.002320,  0.049501,  1.984986 )     1.04127462
  WF centre and spread   47  ( -0.000116,  0.063563,  1.985174 )     1.03108016
  WF centre and spread   48  (  0.000164, -0.044561,  5.962368 )     1.40344516
  WF centre and spread   49  (  0.002650, -0.051371,  5.954347 )     1.03737337
  WF centre and spread   50  ( -0.000814, -0.059447,  5.954089 )     1.03185741
  WF centre and spread   51  (  2.807561,  2.851133,  5.951658 )     1.43644240
  WF centre and spread   52  (  2.808748,  2.858243,  5.954421 )     1.03165113
  WF centre and spread   53  (  2.807511,  2.868933,  5.954483 )     1.03700988
  WF centre and spread   54  (  2.806686,  2.763823,  1.990589 )     1.41775378
  WF centre and spread   55  (  2.807581,  2.757954,  1.984893 )     1.02981297
  WF centre and spread   56  (  2.808114,  2.746527,  1.984962 )     1.04445824
  Sum of centres and spreads (112.025787,114.554931,133.777923 )   251.79386304

   9600    -0.474E+00    36.1469818904      251.7938630456     878.29  <-- CONV
        O_D=      2.6973474 O_OD=     86.7116742 O_TOT=    251.7938630 <-- SPRD
 Delta: O_D= -0.5131399E+00 O_OD=  0.3941268E-01 O_TOT= -0.4737272E+00 <-- DLTA
 ------------------------------------------------------------------------------
 Cycle:   9800
  WF centre and spread    1  ( -0.000028, -0.000036, -0.000129 )     1.36177141
  WF centre and spread    2  (  0.000031,  0.000002,  0.000060 )     1.36113284
  WF centre and spread    3  ( -0.000457, -0.000078,  0.000012 )     1.35589836
  WF centre and spread    4  ( -0.000071, -0.000009,  3.969397 )     1.36453266
  WF centre and spread    5  ( -0.000022,  0.000135,  3.969285 )     1.36368637
  WF centre and spread    6  ( -0.000466, -0.000153,  3.969655 )     1.35653374
  WF centre and spread    7  (  2.807099,  2.807106,  3.969953 )     1.36520443
  WF centre and spread    8  (  2.806990,  2.807009,  3.970179 )     1.36374663
  WF centre and spread    9  (  2.807919,  2.805885,  3.969617 )     1.35721351
  WF centre and spread   10  (  2.807027,  2.807142, -0.000333 )     1.36614648
  WF centre and spread   11  (  2.806978,  2.807016, -0.000016 )     1.36678387
  WF centre and spread   12  (  2.807772,  2.805842,  0.000066 )     1.35870520
  WF centre and spread   13  ( -0.922409,  0.326306,  0.426051 )    22.80258470
  WF centre and spread   14  (  0.058192,  0.232235,  0.175019 )    34.87969791
  WF centre and spread   15  (  0.440638, -1.142620,  4.028639 )    27.59650797
  WF centre and spread   16  (  0.272707,  0.531166,  3.994851 )    16.32734448
  WF centre and spread   17  (  2.962123,  5.253375,  1.853881 )    28.80834985
  WF centre and spread   18  (  2.688378,  2.500436,  3.990340 )    15.32658796
  WF centre and spread   19  (  2.724179,  2.963428,  0.121203 )    33.96511671
  WF centre and spread   20  (  2.783989,  2.776824,  0.003349 )    12.40199175
  WF centre and spread   21  (  1.403673,  4.210339,  0.040193 )     1.07434194
  WF centre and spread   22  (  1.385935,  4.229635,  0.035571 )     1.28244844
  WF centre and spread   23  (  1.383758,  4.227357,  0.035512 )     1.27969896
  WF centre and spread   24  (  1.403591,  1.403550, -0.040756 )     1.07256896
  WF centre and spread   25  (  1.374132,  1.372715, -0.035212 )     1.31742124
  WF centre and spread   26  (  1.374006,  1.374531, -0.035453 )     1.31634624
  WF centre and spread   27  (  4.210356,  1.403451,  4.011313 )     1.05392478
  WF centre and spread   28  (  4.211723,  1.401175,  4.005127 )     1.27120291
  WF centre and spread   29  (  4.215264,  1.401951,  4.005008 )     1.28226159
  WF centre and spread   30  (  4.210424,  4.210408,  3.927764 )     1.05731572
  WF centre and spread   31  (  4.214934,  4.217400,  3.934298 )     1.31333152
  WF centre and spread   32  (  4.224473,  4.218072,  3.934553 )     1.30776110
  WF centre and spread   33  (  4.210343,  1.403597, -0.039752 )     1.07311918
  WF centre and spread   34  (  4.227633,  1.386828, -0.035494 )     1.27078657
  WF centre and spread   35  (  4.230262,  1.382278, -0.035534 )     1.27749054
  WF centre and spread   36  (  4.210281,  4.210293,  0.041201 )     1.07058832
  WF centre and spread   37  (  4.233370,  4.235062,  0.035708 )     1.30789326
  WF centre and spread   38  (  4.240298,  4.238022,  0.035507 )     1.30279858
  WF centre and spread   39  (  1.403580,  4.210446,  3.928929 )     1.05523443
  WF centre and spread   40  (  1.403937,  4.215476,  3.934065 )     1.28305688
  WF centre and spread   41  (  1.398013,  4.209468,  3.934420 )     1.27548071
  WF centre and spread   42  (  1.403476,  1.403531,  4.010125 )     1.05467396
  WF centre and spread   43  (  1.392276,  1.384887,  4.004886 )     1.28321617
  WF centre and spread   44  (  1.387385,  1.392221,  4.005044 )     1.28667471
  WF centre and spread   45  (  0.000350,  0.044852,  1.977821 )     1.38252106
  WF centre and spread   46  (  0.002267,  0.049509,  1.984978 )     1.04247982
  WF centre and spread   47  ( -0.000091,  0.063535,  1.985189 )     1.03218247
  WF centre and spread   48  (  0.000159, -0.044580,  5.962132 )     1.39951412
  WF centre and spread   49  (  0.002609, -0.051332,  5.954357 )     1.03885379
  WF centre and spread   50  ( -0.000745, -0.059457,  5.954086 )     1.03282388
  WF centre and spread   51  (  2.807638,  2.851179,  5.951174 )     1.44193441
  WF centre and spread   52  (  2.808711,  2.858227,  5.954431 )     1.03254480
  WF centre and spread   53  (  2.807574,  2.868739,  5.954505 )     1.03892404
  WF centre and spread   54  (  2.806652,  2.763821,  1.990991 )     1.42073208
  WF centre and spread   55  (  2.807637,  2.757945,  1.984885 )     1.03044330
  WF centre and spread   56  (  2.808157,  2.746432,  1.984965 )     1.04670329
  Sum of centres and spreads (112.054612,114.472571,133.687615 )   251.55883058

   9800     0.760E+00    34.4481940594      251.5588305832     896.80  <-- CONV
        O_D=      2.7775677 O_OD=     86.3964214 O_TOT=    251.5588306 <-- SPRD
 Delta: O_D=  0.6859334E+00 O_OD=  0.7380340E-01 O_TOT=  0.7597368E+00 <-- DLTA
 ------------------------------------------------------------------------------
 Cycle:  10000
  WF centre and spread    1  ( -0.000028, -0.000030, -0.000118 )     1.36158529
  WF centre and spread    2  (  0.000030,  0.000003,  0.000076 )     1.36113247
  WF centre and spread    3  ( -0.000472, -0.000086,  0.000007 )     1.35593818
  WF centre and spread    4  ( -0.000079, -0.000002,  3.969372 )     1.36403646
  WF centre and spread    5  ( -0.000022,  0.000139,  3.969271 )     1.36310621
  WF centre and spread    6  ( -0.000481, -0.000179,  3.969647 )     1.35668527
  WF centre and spread    7  (  2.807109,  2.807113,  3.969965 )     1.36497091
  WF centre and spread    8  (  2.806989,  2.807001,  3.970166 )     1.36326549
  WF centre and spread    9  (  2.807919,  2.805914,  3.969612 )     1.35723819
  WF centre and spread   10  (  2.807040,  2.807157, -0.000333 )     1.36633754
  WF centre and spread   11  (  2.806976,  2.807018, -0.000026 )     1.36680884
  WF centre and spread   12  (  2.807774,  2.805850,  0.000072 )     1.35858086
  WF centre and spread   13  ( -0.936361,  0.302085,  0.472839 )    22.52807315
  WF centre and spread   14  (  0.001976,  0.234358,  0.095002 )    34.15110083
  WF centre and spread   15  (  0.441296, -1.177580,  4.028804 )    27.55980506
  WF centre and spread   16  (  0.276330,  0.520941,  3.993293 )    16.32312329
  WF centre and spread   17  (  2.948232,  5.266157,  1.856224 )    28.69737829
  WF centre and spread   18  (  2.692641,  2.495571,  3.989357 )    15.27820168
  WF centre and spread   19  (  2.702975,  2.998398,  0.135142 )    33.71620083
  WF centre and spread   20  (  2.785183,  2.777892,  0.003101 )    12.37133622
  WF centre and spread   21  (  1.403669,  4.210361,  0.040206 )     1.07458778
  WF centre and spread   22  (  1.385881,  4.229685,  0.035581 )     1.28225661
  WF centre and spread   23  (  1.383530,  4.227516,  0.035508 )     1.27920416
  WF centre and spread   24  (  1.403595,  1.403553, -0.040883 )     1.07251108
  WF centre and spread   25  (  1.374196,  1.372790, -0.035224 )     1.31717204
  WF centre and spread   26  (  1.373847,  1.374553, -0.035462 )     1.31630040
  WF centre and spread   27  (  4.210352,  1.403456,  4.011297 )     1.05323036
  WF centre and spread   28  (  4.211790,  1.401157,  4.005102 )     1.27127245
  WF centre and spread   29  (  4.215442,  1.401830,  4.005011 )     1.28187633
  WF centre and spread   30  (  4.210415,  4.210418,  3.927837 )     1.05682222
  WF centre and spread   31  (  4.215035,  4.217397,  3.934303 )     1.31240280
  WF centre and spread   32  (  4.224693,  4.218207,  3.934544 )     1.30752516
  WF centre and spread   33  (  4.210331,  1.403598, -0.039802 )     1.07338730
  WF centre and spread   34  (  4.227714,  1.386864, -0.035512 )     1.27127362
  WF centre and spread   35  (  4.230490,  1.382306, -0.035537 )     1.27681007
  WF centre and spread   36  (  4.210279,  4.210289,  0.041159 )     1.07030202
  WF centre and spread   37  (  4.233514,  4.235061,  0.035696 )     1.30702793
  WF centre and spread   38  (  4.240525,  4.238184,  0.035516 )     1.30314381
  WF centre and spread   39  (  1.403577,  4.210454,  3.928900 )     1.05444660
  WF centre and spread   40  (  1.404009,  4.215412,  3.934036 )     1.28308540
  WF centre and spread   41  (  1.397876,  4.209598,  3.934383 )     1.27504360
  WF centre and spread   42  (  1.403480,  1.403521,  4.010127 )     1.05416242
  WF centre and spread   43  (  1.392016,  1.384633,  4.004909 )     1.28375620
  WF centre and spread   44  (  1.387088,  1.391922,  4.005006 )     1.28753551
  WF centre and spread   45  (  0.000323,  0.044839,  1.977641 )     1.38181463
  WF centre and spread   46  (  0.002202,  0.049546,  1.984959 )     1.04088943
  WF centre and spread   47  ( -0.000057,  0.063606,  1.985185 )     1.03048282
  WF centre and spread   48  (  0.000136, -0.044595,  5.962195 )     1.40037989
  WF centre and spread   49  (  0.002490, -0.051320,  5.954351 )     1.03756552
  WF centre and spread   50  ( -0.000723, -0.059460,  5.954089 )     1.03126083
  WF centre and spread   51  (  2.807536,  2.851244,  5.951697 )     1.43394601
  WF centre and spread   52  (  2.808672,  2.858217,  5.954390 )     1.03172409
  WF centre and spread   53  (  2.807579,  2.868853,  5.954475 )     1.03673737
  WF centre and spread   54  (  2.806651,  2.763842,  1.990547 )     1.41439919
  WF centre and spread   55  (  2.807613,  2.757918,  1.984886 )     1.02997292
  WF centre and spread   56  (  2.808120,  2.746488,  1.984917 )     1.04470414
  Sum of centres and spreads (111.958911,114.449663,133.667507 )   250.04391776

  10000    -0.101E-02     2.0052339709      250.0439177578     914.92  <-- CONV
        O_D=      1.7384538 O_OD=     85.9206224 O_TOT=    250.0439178 <-- SPRD
 Delta: O_D= -0.3472294E-03 O_OD= -0.6641531E-03 O_TOT= -0.1011382E-02 <-- DLTA
 ------------------------------------------------------------------------------
 Final State
  WF centre and spread    1  ( -0.000028, -0.000030, -0.000118 )     1.36158529
  WF centre and spread    2  (  0.000030,  0.000003,  0.000076 )     1.36113247
  WF centre and spread    3  ( -0.000472, -0.000086,  0.000007 )     1.35593818
  WF centre and spread    4  ( -0.000079, -0.000002,  3.969372 )     1.36403646
  WF centre and spread    5  ( -0.000022,  0.000139,  3.969271 )     1.36310621
  WF centre and spread    6  ( -0.000481, -0.000179,  3.969647 )     1.35668527
  WF centre and spread    7  (  2.807109,  2.807113,  3.969965 )     1.36497091
  WF centre and spread    8  (  2.806989,  2.807001,  3.970166 )     1.36326549
  WF centre and spread    9  (  2.807919,  2.805914,  3.969612 )     1.35723819
  WF centre and spread   10  (  2.807040,  2.807157, -0.000333 )     1.36633754
  WF centre and spread   11  (  2.806976,  2.807018, -0.000026 )     1.36680884
  WF centre and spread   12  (  2.807774,  2.805850,  0.000072 )     1.35858086
  WF centre and spread   13  ( -0.936361,  0.302085,  0.472839 )    22.52807315
  WF centre and spread   14  (  0.001976,  0.234358,  0.095002 )    34.15110083
  WF centre and spread   15  (  0.441296, -1.177580,  4.028804 )    27.55980506
  WF centre and spread   16  (  0.276330,  0.520941,  3.993293 )    16.32312329
  WF centre and spread   17  (  2.948232,  5.266157,  1.856224 )    28.69737829
  WF centre and spread   18  (  2.692641,  2.495571,  3.989357 )    15.27820168
  WF centre and spread   19  (  2.702975,  2.998398,  0.135142 )    33.71620083
  WF centre and spread   20  (  2.785183,  2.777892,  0.003101 )    12.37133622
  WF centre and spread   21  (  1.403669,  4.210361,  0.040206 )     1.07458778
  WF centre and spread   22  (  1.385881,  4.229685,  0.035581 )     1.28225661
  WF centre and spread   23  (  1.383530,  4.227516,  0.035508 )     1.27920416
  WF centre and spread   24  (  1.403595,  1.403553, -0.040883 )     1.07251108
  WF centre and spread   25  (  1.374196,  1.372790, -0.035224 )     1.31717204
  WF centre and spread   26  (  1.373847,  1.374553, -0.035462 )     1.31630040
  WF centre and spread   27  (  4.210352,  1.403456,  4.011297 )     1.05323036
  WF centre and spread   28  (  4.211790,  1.401157,  4.005102 )     1.27127245
  WF centre and spread   29  (  4.215442,  1.401830,  4.005011 )     1.28187633
  WF centre and spread   30  (  4.210415,  4.210418,  3.927837 )     1.05682222
  WF centre and spread   31  (  4.215035,  4.217397,  3.934303 )     1.31240280
  WF centre and spread   32  (  4.224693,  4.218207,  3.934544 )     1.30752516
  WF centre and spread   33  (  4.210331,  1.403598, -0.039802 )     1.07338730
  WF centre and spread   34  (  4.227714,  1.386864, -0.035512 )     1.27127362
  WF centre and spread   35  (  4.230490,  1.382306, -0.035537 )     1.27681007
  WF centre and spread   36  (  4.210279,  4.210289,  0.041159 )     1.07030202
  WF centre and spread   37  (  4.233514,  4.235061,  0.035696 )     1.30702793
  WF centre and spread   38  (  4.240525,  4.238184,  0.035516 )     1.30314381
  WF centre and spread   39  (  1.403577,  4.210454,  3.928900 )     1.05444660
  WF centre and spread   40  (  1.404009,  4.215412,  3.934036 )     1.28308540
  WF centre and spread   41  (  1.397876,  4.209598,  3.934383 )     1.27504360
  WF centre and spread   42  (  1.403480,  1.403521,  4.010127 )     1.05416242
  WF centre and spread   43  (  1.392016,  1.384633,  4.004909 )     1.28375620
  WF centre and spread   44  (  1.387088,  1.391922,  4.005006 )     1.28753551
  WF centre and spread   45  (  0.000323,  0.044839,  1.977641 )     1.38181463
  WF centre and spread   46  (  0.002202,  0.049546,  1.984959 )     1.04088943
  WF centre and spread   47  ( -0.000057,  0.063606,  1.985185 )     1.03048282
  WF centre and spread   48  (  0.000136, -0.044595,  5.962195 )     1.40037989
  WF centre and spread   49  (  0.002490, -0.051320,  5.954351 )     1.03756552
  WF centre and spread   50  ( -0.000723, -0.059460,  5.954089 )     1.03126083
  WF centre and spread   51  (  2.807536,  2.851244,  5.951697 )     1.43394601
  WF centre and spread   52  (  2.808672,  2.858217,  5.954390 )     1.03172409
  WF centre and spread   53  (  2.807579,  2.868853,  5.954475 )     1.03673737
  WF centre and spread   54  (  2.806651,  2.763842,  1.990547 )     1.41439919
  WF centre and spread   55  (  2.807613,  2.757918,  1.984886 )     1.02997292
  WF centre and spread   56  (  2.808120,  2.746488,  1.984917 )     1.04470414
  Sum of centres and spreads (111.958911,114.449663,133.667507 )   250.04391776

         Spreads (Ang^2)       Omega I      =   162.384841503
        ================       Omega D      =     1.738453848
                               Omega OD     =    85.920622407
    Final Spread (Ang^2)       Omega Total  =   250.043917758
 ------------------------------------------------------------------------------

 Writing checkpoint file smo.chk... done

 *---------------------------------------------------------------------------*
 |                               PLOTTING                                    |
 *---------------------------------------------------------------------------*


 Calculating interpolated band-structure

 Time to calculate interpolated band structure       2.103 (sec)

  
  Omega Invariant:   1-s^2 =   162.384841501 (Ang^2)
                   -2log s =  1494.373301744 (Ang^2)
                    acos^2 =   289.058483505 (Ang^2)

 *===========================================================================*
 |                             TIMING INFORMATION                            |
 *===========================================================================*
 |    Tag                                                Ncalls      Time (s)|
 |---------------------------------------------------------------------------|
 |kmesh: get                                        :         1         0.112|
 |overlap: read                                     :         1         4.520|
 |wann: main                                        :         1       914.301|
 |plot: main                                        :         1         6.182|
 *---------------------------------------------------------------------------*
 All done: wannier90 exiting
