
     Program PWSCF v.7.5 starts on 29Nov2025 at 20:36:12 
        Git branch: develop
        Last git commit: 70e07caa2a5fab3dd9374bc01196f67e923fc5ea
        Last git commit date: Mon Aug 18 10:06:47 2025 +0000
        Last git commit subject: Merge branch 'stressed-by-optional-variables' into

     This program is part of the open-source Quantum ESPRESSO suite
     for quantum simulation of materials; please cite
         "P. Giannozzi et al., J. Phys.:Condens. Matter 21 395502 (2009);
         "P. Giannozzi et al., J. Phys.:Condens. Matter 29 465901 (2017);
         "P. Giannozzi et al., J. Chem. Phys. 152 154105 (2020);
          URL http://www.quantum-espresso.org", 
     in publications or presentations arising from this work. More details at
     http://www.quantum-espresso.org/quote

     Parallel version (MPI), running on   128 processors

     MPI processes distributed on     1 nodes
     957836 MiB available memory on the printing compute node when the environment starts

     Waiting for input...
     Reading input from standard input

     Current dimensions of program PWSCF are:
     Max number of different atomic species (ntypx) = 10
     Max number of k-points (npk) =  40000
     Max angular momentum in pseudopotentials (lmaxx) =  4
     file Sr.pz-spn-kjpaw_psl.1.0.0.UPF: wavefunction(s)  4P renormalized
     file Mo.pz-spn-kjpaw_psl.1.0.0.UPF: wavefunction(s)  4S 4D renormalized
     file O.pz-n-kjpaw_psl.1.0.0.UPF: wavefunction(s)  2S 2P renormalized

     Atomic positions and unit cell read from directory:
     ./out/smo.save/

     Found identity + (  0.5000 -0.5000 -0.5000) symmetry
     This is a supercell, fractional translations are disabled
     Message from routine setup:
     using ibrav=0 with symmetry is DISCOURAGED, use correct ibrav instead

     K-points division:     npool     =     128
     Subspace diagonalization in iterative solution of the eigenvalue problem:
     a serial algorithm will be used

     Message from routine divide_et_impera:
     suboptimal parallelization: some nodes have no k-points

     G-vector sticks info
     --------------------
     sticks:   dense  smooth     PW     G-vecs:    dense   smooth      PW
     Sum        5385    2701    749               419469   148351   21815

     Using Slab Decomposition



     bravais-lattice index     =            0
     lattice parameter (alat)  =      10.6088  a.u.
     unit-cell volume          =    1688.5722 (a.u.)^3
     number of atoms/cell      =           20
     number of atomic types    =            3
     number of electrons       =       168.00
     number of Kohn-Sham states=          101
     kinetic-energy cutoff     =      75.0000  Ry
     charge density cutoff     =     600.0000  Ry
     Exchange-correlation= SLA  PZ   NOGX NOGC
                           (   1   1   0   0   0   0   0)

     celldm(1)=  10.608847  celldm(2)=   0.000000  celldm(3)=   0.000000
     celldm(4)=   0.000000  celldm(5)=   0.000000  celldm(6)=   0.000000

     crystal axes: (cart. coord. in units of alat)
               a(1) = (   1.000000   0.000000   0.000000 )  
               a(2) = (   0.000000   1.000000   0.000000 )  
               a(3) = (   0.000000   0.000000   1.414214 )  

     reciprocal axes: (cart. coord. in units 2 pi/alat)
               b(1) = (  1.000000  0.000000  0.000000 )  
               b(2) = (  0.000000  1.000000  0.000000 )  
               b(3) = (  0.000000  0.000000  0.707107 )  


     PseudoPot. # 1 for Sr read from file:
     ./pseudo/Sr.pz-spn-kjpaw_psl.1.0.0.UPF
     MD5 check sum: 14b1f655f5497b386c4f305353cf4fd4
     Pseudo is Projector augmented-wave + core cor, Zval = 10.0
     Generated using 'atomic' code by A. Dal Corso  v.7.3
     Shape of augmentation charge: PSQ
     Using radial grid of 1221 points,  6 beta functions with: 
                l(1) =   0
                l(2) =   0
                l(3) =   1
                l(4) =   1
                l(5) =   2
                l(6) =   2
     Q(r) pseudized with 0 coefficients 


     PseudoPot. # 2 for Mo read from file:
     ./pseudo/Mo.pz-spn-kjpaw_psl.1.0.0.UPF
     MD5 check sum: 2e12aff744a4785a34e7548d4bec1d21
     Pseudo is Projector augmented-wave + core cor, Zval = 14.0
     Generated using 'atomic' code by A. Dal Corso  v.7.3
     Shape of augmentation charge: PSQ
     Using radial grid of 1229 points,  6 beta functions with: 
                l(1) =   0
                l(2) =   0
                l(3) =   1
                l(4) =   1
                l(5) =   2
                l(6) =   2
     Q(r) pseudized with 0 coefficients 


     PseudoPot. # 3 for O  read from file:
     ./pseudo/O.pz-n-kjpaw_psl.1.0.0.UPF
     MD5 check sum: 71a951e35f67dc87891058fc5642ed8f
     Pseudo is Projector augmented-wave + core cor, Zval =  6.0
     Generated using 'atomic' code by A. Dal Corso  v.7.3
     Shape of augmentation charge: PSQ
     Using radial grid of 1095 points,  4 beta functions with: 
                l(1) =   0
                l(2) =   0
                l(3) =   1
                l(4) =   1
     Q(r) pseudized with 0 coefficients 


     atomic species   valence    mass     pseudopotential
     Sr               10.00    87.62000     Sr( 1.00)
     Mo               14.00    95.95000     Mo( 1.00)
     O                 6.00    15.99900     O ( 1.00)

      4 Sym. Ops., with inversion, found


                                    s                        frac. trans.

      isym =  1     identity                                     

 cryst.   s( 1) = (     1          0          0      )
                  (     0          1          0      )
                  (     0          0          1      )

 cart.    s( 1) = (  1.0000000  0.0000000  0.0000000 )
                  (  0.0000000  1.0000000  0.0000000 )
                  (  0.0000000  0.0000000  1.0000000 )


      isym =  2     180 deg rotation - cart. axis [1,0,0]        

 cryst.   s( 2) = (     1          0          0      )
                  (     0         -1          0      )
                  (     0          0         -1      )

 cart.    s( 2) = (  1.0000000  0.0000000  0.0000000 )
                  (  0.0000000 -1.0000000  0.0000000 )
                  (  0.0000000  0.0000000 -1.0000000 )


      isym =  3     inversion                                    

 cryst.   s( 3) = (    -1          0          0      )
                  (     0         -1          0      )
                  (     0          0         -1      )

 cart.    s( 3) = ( -1.0000000  0.0000000  0.0000000 )
                  (  0.0000000 -1.0000000  0.0000000 )
                  (  0.0000000  0.0000000 -1.0000000 )


      isym =  4     inv. 180 deg rotation - cart. axis [1,0,0]   

 cryst.   s( 4) = (    -1          0          0      )
                  (     0          1          0      )
                  (     0          0          1      )

 cart.    s( 4) = ( -1.0000000  0.0000000  0.0000000 )
                  (  0.0000000  1.0000000  0.0000000 )
                  (  0.0000000  0.0000000  1.0000000 )


   Cartesian axes

     site n.     atom                  positions (alat units)
         1        Sr     tau(   1) = (   0.0000000   0.5000000   0.3535535  )
         2        Sr     tau(   2) = (   0.0000000   0.5000000   1.0606604  )
         3        Sr     tau(   3) = (   0.5000000   0.0000000   1.0606604  )
         4        Sr     tau(   4) = (   0.5000000   0.0000000   0.3535535  )
         5        Mo     tau(   5) = (   0.0000000   0.0000000   0.0000000  )
         6        Mo     tau(   6) = (   0.0000000   0.0000000   0.7071069  )
         7        Mo     tau(   7) = (   0.5000000   0.5000000   0.7071069  )
         8        Mo     tau(   8) = (   0.5000000   0.5000000   0.0000000  )
         9        O      tau(   9) = (   0.2500000   0.7500000   0.0251900  )
        10        O      tau(  10) = (   0.2500000   0.2500000  -0.0251900  )
        11        O      tau(  11) = (   0.7500000   0.2500000   0.7322969  )
        12        O      tau(  12) = (   0.7500000   0.7500000   0.6819169  )
        13        O      tau(  13) = (   0.7500000   0.2500000  -0.0251900  )
        14        O      tau(  14) = (   0.7500000   0.7500000   0.0251900  )
        15        O      tau(  15) = (   0.2500000   0.7500000   0.6819169  )
        16        O      tau(  16) = (   0.2500000   0.2500000   0.7322969  )
        17        O      tau(  17) = (   0.0000000   0.0356240   0.3535535  )
        18        O      tau(  18) = (   0.0000000  -0.0356240   1.0606604  )
        19        O      tau(  19) = (   0.5000000   0.5356240   1.0606604  )
        20        O      tau(  20) = (   0.5000000   0.4643760   0.3535535  )

   Crystallographic axes

     site n.     atom                  positions (cryst. coord.)
         1        Sr     tau(   1) = (  0.0000000  0.5000000  0.2500000  )
         2        Sr     tau(   2) = (  0.0000000  0.5000000  0.7500000  )
         3        Sr     tau(   3) = (  0.5000000  0.0000000  0.7500000  )
         4        Sr     tau(   4) = (  0.5000000  0.0000000  0.2500000  )
         5        Mo     tau(   5) = (  0.0000000  0.0000000  0.0000000  )
         6        Mo     tau(   6) = (  0.0000000  0.0000000  0.5000000  )
         7        Mo     tau(   7) = (  0.5000000  0.5000000  0.5000000  )
         8        Mo     tau(   8) = (  0.5000000  0.5000000  0.0000000  )
         9        O      tau(   9) = (  0.2500000  0.7500000  0.0178120  )
        10        O      tau(  10) = (  0.2500000  0.2500000 -0.0178120  )
        11        O      tau(  11) = (  0.7500000  0.2500000  0.5178120  )
        12        O      tau(  12) = (  0.7500000  0.7500000  0.4821880  )
        13        O      tau(  13) = (  0.7500000  0.2500000 -0.0178120  )
        14        O      tau(  14) = (  0.7500000  0.7500000  0.0178120  )
        15        O      tau(  15) = (  0.2500000  0.7500000  0.4821880  )
        16        O      tau(  16) = (  0.2500000  0.2500000  0.5178120  )
        17        O      tau(  17) = (  0.0000000  0.0356240  0.2500000  )
        18        O      tau(  18) = (  0.0000000 -0.0356240  0.7500000  )
        19        O      tau(  19) = (  0.5000000  0.5356240  0.7500000  )
        20        O      tau(  20) = (  0.5000000  0.4643760  0.2500000  )

     number of k points=    71  Marzari-Vanderbilt smearing, width (Ry)=  0.0147
                       cart. coord. in units 2pi/alat
        k(    1) = (   0.0000000   0.0000000   0.0000000), wk =   0.0281690
        k(    2) = (   0.0000000   0.0500000   0.0000000), wk =   0.0281690
        k(    3) = (   0.0000000   0.1000000   0.0000000), wk =   0.0281690
        k(    4) = (   0.0000000   0.1500000   0.0000000), wk =   0.0281690
        k(    5) = (   0.0000000   0.2000000   0.0000000), wk =   0.0281690
        k(    6) = (   0.0000000   0.2500000   0.0000000), wk =   0.0281690
        k(    7) = (   0.0000000   0.3000000   0.0000000), wk =   0.0281690
        k(    8) = (   0.0000000   0.3500000   0.0000000), wk =   0.0281690
        k(    9) = (   0.0000000   0.4000000   0.0000000), wk =   0.0281690
        k(   10) = (   0.0000000   0.4500000   0.0000000), wk =   0.0281690
        k(   11) = (   0.0000000   0.5000000   0.0000000), wk =   0.0281690
        k(   12) = (   0.0500000   0.5000000   0.0000000), wk =   0.0281690
        k(   13) = (   0.1000000   0.5000000   0.0000000), wk =   0.0281690
        k(   14) = (   0.1500000   0.5000000   0.0000000), wk =   0.0281690
        k(   15) = (   0.2000000   0.5000000   0.0000000), wk =   0.0281690
        k(   16) = (   0.2500000   0.5000000   0.0000000), wk =   0.0281690
        k(   17) = (   0.3000000   0.5000000   0.0000000), wk =   0.0281690
        k(   18) = (   0.3500000   0.5000000   0.0000000), wk =   0.0281690
        k(   19) = (   0.4000000   0.5000000   0.0000000), wk =   0.0281690
        k(   20) = (   0.4500000   0.5000000   0.0000000), wk =   0.0281690
        k(   21) = (   0.5000000   0.5000000   0.0000000), wk =   0.0281690
        k(   22) = (   0.4500000   0.4500000   0.0000000), wk =   0.0281690
        k(   23) = (   0.4000000   0.4000000   0.0000000), wk =   0.0281690
        k(   24) = (   0.3500000   0.3500000   0.0000000), wk =   0.0281690
        k(   25) = (   0.3000000   0.3000000   0.0000000), wk =   0.0281690
        k(   26) = (   0.2500000   0.2500000   0.0000000), wk =   0.0281690
        k(   27) = (   0.2000000   0.2000000   0.0000000), wk =   0.0281690
        k(   28) = (   0.1500000   0.1500000   0.0000000), wk =   0.0281690
        k(   29) = (   0.1000000   0.1000000   0.0000000), wk =   0.0281690
        k(   30) = (   0.0500000   0.0500000   0.0000000), wk =   0.0281690
        k(   31) = (   0.0000000   0.0000000   0.0000000), wk =   0.0281690
        k(   32) = (   0.0000000   0.0000000   0.0353553), wk =   0.0281690
        k(   33) = (   0.0000000   0.0000000   0.0707107), wk =   0.0281690
        k(   34) = (   0.0000000   0.0000000   0.1060660), wk =   0.0281690
        k(   35) = (   0.0000000   0.0000000   0.1414213), wk =   0.0281690
        k(   36) = (   0.0000000   0.0000000   0.1767767), wk =   0.0281690
        k(   37) = (   0.0000000   0.0000000   0.2121320), wk =   0.0281690
        k(   38) = (   0.0000000   0.0000000   0.2474873), wk =   0.0281690
        k(   39) = (   0.0000000   0.0000000   0.2828427), wk =   0.0281690
        k(   40) = (   0.0000000   0.0000000   0.3181980), wk =   0.0281690
        k(   41) = (   0.0000000   0.0000000   0.3535533), wk =   0.0281690
        k(   42) = (   0.0000000   0.0500000   0.3535533), wk =   0.0281690
        k(   43) = (   0.0000000   0.1000000   0.3535533), wk =   0.0281690
        k(   44) = (   0.0000000   0.1500000   0.3535533), wk =   0.0281690
        k(   45) = (   0.0000000   0.2000000   0.3535533), wk =   0.0281690
        k(   46) = (   0.0000000   0.2500000   0.3535533), wk =   0.0281690
        k(   47) = (   0.0000000   0.3000000   0.3535533), wk =   0.0281690
        k(   48) = (   0.0000000   0.3500000   0.3535533), wk =   0.0281690
        k(   49) = (   0.0000000   0.4000000   0.3535533), wk =   0.0281690
        k(   50) = (   0.0000000   0.4500000   0.3535533), wk =   0.0281690
        k(   51) = (   0.0000000   0.5000000   0.3535533), wk =   0.0281690
        k(   52) = (   0.0500000   0.5000000   0.3535533), wk =   0.0281690
        k(   53) = (   0.1000000   0.5000000   0.3535533), wk =   0.0281690
        k(   54) = (   0.1500000   0.5000000   0.3535533), wk =   0.0281690
        k(   55) = (   0.2000000   0.5000000   0.3535533), wk =   0.0281690
        k(   56) = (   0.2500000   0.5000000   0.3535533), wk =   0.0281690
        k(   57) = (   0.3000000   0.5000000   0.3535533), wk =   0.0281690
        k(   58) = (   0.3500000   0.5000000   0.3535533), wk =   0.0281690
        k(   59) = (   0.4000000   0.5000000   0.3535533), wk =   0.0281690
        k(   60) = (   0.4500000   0.5000000   0.3535533), wk =   0.0281690
        k(   61) = (   0.5000000   0.5000000   0.3535533), wk =   0.0281690
        k(   62) = (   0.4500000   0.4500000   0.3535533), wk =   0.0281690
        k(   63) = (   0.4000000   0.4000000   0.3535533), wk =   0.0281690
        k(   64) = (   0.3500000   0.3500000   0.3535533), wk =   0.0281690
        k(   65) = (   0.3000000   0.3000000   0.3535533), wk =   0.0281690
        k(   66) = (   0.2500000   0.2500000   0.3535533), wk =   0.0281690
        k(   67) = (   0.2000000   0.2000000   0.3535533), wk =   0.0281690
        k(   68) = (   0.1500000   0.1500000   0.3535533), wk =   0.0281690
        k(   69) = (   0.1000000   0.1000000   0.3535533), wk =   0.0281690
        k(   70) = (   0.0500000   0.0500000   0.3535533), wk =   0.0281690
        k(   71) = (   0.0000000   0.0000000   0.3535533), wk =   0.0281690

                       cryst. coord.
        k(    1) = (   0.0000000   0.0000000   0.0000000), wk =   0.0281690
        k(    2) = (   0.0000000   0.0500000   0.0000000), wk =   0.0281690
        k(    3) = (   0.0000000   0.1000000   0.0000000), wk =   0.0281690
        k(    4) = (   0.0000000   0.1500000   0.0000000), wk =   0.0281690
        k(    5) = (   0.0000000   0.2000000   0.0000000), wk =   0.0281690
        k(    6) = (   0.0000000   0.2500000   0.0000000), wk =   0.0281690
        k(    7) = (   0.0000000   0.3000000   0.0000000), wk =   0.0281690
        k(    8) = (   0.0000000   0.3500000   0.0000000), wk =   0.0281690
        k(    9) = (   0.0000000   0.4000000   0.0000000), wk =   0.0281690
        k(   10) = (   0.0000000   0.4500000   0.0000000), wk =   0.0281690
        k(   11) = (   0.0000000   0.5000000   0.0000000), wk =   0.0281690
        k(   12) = (   0.0500000   0.5000000   0.0000000), wk =   0.0281690
        k(   13) = (   0.1000000   0.5000000   0.0000000), wk =   0.0281690
        k(   14) = (   0.1500000   0.5000000   0.0000000), wk =   0.0281690
        k(   15) = (   0.2000000   0.5000000   0.0000000), wk =   0.0281690
        k(   16) = (   0.2500000   0.5000000   0.0000000), wk =   0.0281690
        k(   17) = (   0.3000000   0.5000000   0.0000000), wk =   0.0281690
        k(   18) = (   0.3500000   0.5000000   0.0000000), wk =   0.0281690
        k(   19) = (   0.4000000   0.5000000   0.0000000), wk =   0.0281690
        k(   20) = (   0.4500000   0.5000000   0.0000000), wk =   0.0281690
        k(   21) = (   0.5000000   0.5000000   0.0000000), wk =   0.0281690
        k(   22) = (   0.4500000   0.4500000   0.0000000), wk =   0.0281690
        k(   23) = (   0.4000000   0.4000000   0.0000000), wk =   0.0281690
        k(   24) = (   0.3500000   0.3500000   0.0000000), wk =   0.0281690
        k(   25) = (   0.3000000   0.3000000   0.0000000), wk =   0.0281690
        k(   26) = (   0.2500000   0.2500000   0.0000000), wk =   0.0281690
        k(   27) = (   0.2000000   0.2000000   0.0000000), wk =   0.0281690
        k(   28) = (   0.1500000   0.1500000   0.0000000), wk =   0.0281690
        k(   29) = (   0.1000000   0.1000000   0.0000000), wk =   0.0281690
        k(   30) = (   0.0500000   0.0500000   0.0000000), wk =   0.0281690
        k(   31) = (   0.0000000   0.0000000   0.0000000), wk =   0.0281690
        k(   32) = (   0.0000000   0.0000000   0.0500000), wk =   0.0281690
        k(   33) = (   0.0000000   0.0000000   0.1000000), wk =   0.0281690
        k(   34) = (   0.0000000   0.0000000   0.1500000), wk =   0.0281690
        k(   35) = (   0.0000000   0.0000000   0.2000000), wk =   0.0281690
        k(   36) = (   0.0000000   0.0000000   0.2500000), wk =   0.0281690
        k(   37) = (   0.0000000   0.0000000   0.3000000), wk =   0.0281690
        k(   38) = (   0.0000000   0.0000000   0.3500000), wk =   0.0281690
        k(   39) = (   0.0000000   0.0000000   0.4000000), wk =   0.0281690
        k(   40) = (   0.0000000   0.0000000   0.4500000), wk =   0.0281690
        k(   41) = (   0.0000000   0.0000000   0.5000000), wk =   0.0281690
        k(   42) = (   0.0000000   0.0500000   0.5000000), wk =   0.0281690
        k(   43) = (   0.0000000   0.1000000   0.5000000), wk =   0.0281690
        k(   44) = (   0.0000000   0.1500000   0.5000000), wk =   0.0281690
        k(   45) = (   0.0000000   0.2000000   0.5000000), wk =   0.0281690
        k(   46) = (   0.0000000   0.2500000   0.5000000), wk =   0.0281690
        k(   47) = (   0.0000000   0.3000000   0.5000000), wk =   0.0281690
        k(   48) = (   0.0000000   0.3500000   0.5000000), wk =   0.0281690
        k(   49) = (   0.0000000   0.4000000   0.5000000), wk =   0.0281690
        k(   50) = (   0.0000000   0.4500000   0.5000000), wk =   0.0281690
        k(   51) = (   0.0000000   0.5000000   0.5000000), wk =   0.0281690
        k(   52) = (   0.0500000   0.5000000   0.5000000), wk =   0.0281690
        k(   53) = (   0.1000000   0.5000000   0.5000000), wk =   0.0281690
        k(   54) = (   0.1500000   0.5000000   0.5000000), wk =   0.0281690
        k(   55) = (   0.2000000   0.5000000   0.5000000), wk =   0.0281690
        k(   56) = (   0.2500000   0.5000000   0.5000000), wk =   0.0281690
        k(   57) = (   0.3000000   0.5000000   0.5000000), wk =   0.0281690
        k(   58) = (   0.3500000   0.5000000   0.5000000), wk =   0.0281690
        k(   59) = (   0.4000000   0.5000000   0.5000000), wk =   0.0281690
        k(   60) = (   0.4500000   0.5000000   0.5000000), wk =   0.0281690
        k(   61) = (   0.5000000   0.5000000   0.5000000), wk =   0.0281690
        k(   62) = (   0.4500000   0.4500000   0.5000000), wk =   0.0281690
        k(   63) = (   0.4000000   0.4000000   0.5000000), wk =   0.0281690
        k(   64) = (   0.3500000   0.3500000   0.5000000), wk =   0.0281690
        k(   65) = (   0.3000000   0.3000000   0.5000000), wk =   0.0281690
        k(   66) = (   0.2500000   0.2500000   0.5000000), wk =   0.0281690
        k(   67) = (   0.2000000   0.2000000   0.5000000), wk =   0.0281690
        k(   68) = (   0.1500000   0.1500000   0.5000000), wk =   0.0281690
        k(   69) = (   0.1000000   0.1000000   0.5000000), wk =   0.0281690
        k(   70) = (   0.0500000   0.0500000   0.5000000), wk =   0.0281690
        k(   71) = (   0.0000000   0.0000000   0.5000000), wk =   0.0281690

     Dense  grid:   419469 G-vectors     FFT dimensions: (  90,  90, 120)

     Smooth grid:   148351 G-vectors     FFT dimensions: (  60,  60,  90)

     Dynamical RAM for                 wfc:      28.54 MB

     Dynamical RAM for     wfc (w. buffer):      28.54 MB

     Dynamical RAM for           str. fact:      19.20 MB

     Dynamical RAM for           local pot:       0.00 MB

     Dynamical RAM for          nlocal pot:      67.83 MB

     Dynamical RAM for                qrad:       5.90 MB

     Dynamical RAM for          rho,v,vnew:      41.45 MB

     Dynamical RAM for           G-vectors:      25.13 MB

     Dynamical RAM for          h,s,v(r/c):       1.87 MB

     Dynamical RAM for          <psi|beta>:       0.37 MB

     Dynamical RAM for                 psi:      57.09 MB

     Dynamical RAM for                hpsi:      57.09 MB

     Dynamical RAM for                spsi:      57.09 MB

     Dynamical RAM for      wfcinit/wfcrot:      57.32 MB

     Dynamical RAM for           addusdens:      16.25 MB

     Estimated static dynamical RAM per process >     250.73 MB

     Estimated max dynamical RAM per process >     424.23 MB

     Estimated total dynamical RAM >      53.03 GB

     The potential is recalculated from file :
     ./out/smo.save/charge-density

     Starting wfcs are  120 randomized atomic wfcs
     Checking if some PAW data can be deallocated... 
       PAW data deallocated on  100 nodes for type:  1
       PAW data deallocated on  100 nodes for type:  2
       PAW data deallocated on   56 nodes for type:  3

     Band Structure Calculation
     Davidson diagonalization with overlap

     Computing kpt #:     1  of     1 on this pool
     c_bands:  2 eigenvalues not converged
     total cpu time spent up to now is      103.4 secs

     ethr =  2.38E-13,  avg # of iterations =119.8

     total cpu time spent up to now is      117.3 secs

     End of band structure calculation

          k = 0.0000 0.0000 0.0000 ( 18577 PWs)   bands (ev):

   -48.9861 -48.9848 -48.9835 -48.9822 -23.2996 -23.2868 -23.2828 -23.2821
   -23.2775 -23.2734 -23.2104 -23.2096 -23.2076 -23.2024 -23.2005 -23.1971
   -22.0593 -22.0277 -22.0227 -22.0070  -6.9849  -6.7388  -6.2757  -6.1323
    -6.0936  -6.0252  -5.8469  -5.7881  -5.3662  -5.3560  -5.3407  -5.3101
    -4.3527  -4.3098  -4.2429  -4.0899  -4.0529  -4.0436  -4.0362  -4.0261
    -4.0094  -3.6959  -3.6380  -3.5916   5.1576   5.1789   5.1985   5.2883
     5.3431   5.4185   5.6067   6.2536   6.2603   6.2617   7.1881   7.1934
     7.6582   7.6635   7.6973   7.7260   7.7700   7.7735   7.7892   7.8381
     8.2026   8.7018   8.7319   8.8063   9.0498   9.0943   9.1158   9.4250
     9.4456   9.7122   9.7190   9.7374  10.0507  10.0934  10.1406  10.1429
    11.6615  11.6906  11.7146  11.8343  14.1093  14.2072  14.2839  14.3268
    14.9189  15.1240  15.1260  15.3604  15.5187  15.6279  15.7205  15.7966
    15.9451  15.9665  16.5540  17.0669  17.1291

          k = 0.0000 0.0500 0.0000 ( 18595 PWs)   bands (ev):

   -48.9861 -48.9848 -48.9835 -48.9822 -23.2994 -23.2864 -23.2823 -23.2822
   -23.2770 -23.2729 -23.2103 -23.2102 -23.2080 -23.2025 -23.2009 -23.1976
   -22.0589 -22.0276 -22.0227 -22.0072  -6.9773  -6.7384  -6.2887  -6.1307
    -6.0915  -6.0212  -5.8377  -5.7897  -5.3824  -5.3630  -5.3488  -5.3151
    -4.3440  -4.3087  -4.2319  -4.0877  -4.0549  -4.0422  -4.0300  -4.0176
    -4.0103  -3.6989  -3.6396  -3.5942   5.1741   5.1954   5.2046   5.2883
     5.3588   5.4335   5.6176   6.2549   6.2609   6.2635   7.1953   7.1974
     7.5090   7.6160   7.6808   7.7229   7.7534   7.7675   7.7806   7.9840
     8.2516   8.7047   8.7236   8.8112   9.0129   9.0697   9.1153   9.3862
     9.4231   9.6748   9.7070   9.7124  10.0507  10.0929  10.1313  10.1333
    11.6816  11.7305  11.7391  11.8740  14.1113  14.2005  14.2854  14.3115
    14.9208  15.1049  15.1395  15.3391  15.5556  15.6478  15.7369  15.7966
    15.9634  15.9953  16.5523  17.0837  17.1604

          k = 0.0000 0.1000 0.0000 ( 18565 PWs)   bands (ev):

   -48.9860 -48.9847 -48.9835 -48.9822 -23.2989 -23.2854 -23.2823 -23.2810
   -23.2756 -23.2715 -23.2120 -23.2102 -23.2092 -23.2029 -23.2024 -23.1990
   -22.0577 -22.0274 -22.0229 -22.0078  -6.9544  -6.7372  -6.3234  -6.1253
    -6.0852  -6.0096  -5.8143  -5.7944  -5.4289  -5.3827  -5.3720  -5.3300
    -4.3199  -4.3056  -4.2003  -4.0812  -4.0610  -4.0381  -4.0127  -4.0122
    -3.9935  -3.7076  -3.6440  -3.6019   5.2208   5.2232   5.2443   5.2882
     5.4032   5.4803   5.6519   6.2356   6.2728   6.2833   7.2094   7.2170
     7.2973   7.5074   7.6323   7.6942   7.7115   7.7535   7.7600   8.1857
     8.3623   8.7004   8.7138   8.8284   8.9074   8.9997   9.1142   9.2761
     9.3606   9.5758   9.6435   9.6723  10.0435  10.0896  10.1033  10.1036
    11.7405  11.8108  11.8422  11.9862  14.1178  14.1782  14.2657  14.2904
    14.9235  15.0485  15.1635  15.2774  15.6658  15.7204  15.7665  15.8190
    16.0184  16.0801  16.5467  17.1335  17.2265

          k = 0.0000 0.1500 0.0000 ( 18557 PWs)   bands (ev):

   -48.9859 -48.9846 -48.9836 -48.9823 -23.2982 -23.2836 -23.2826 -23.2788
   -23.2733 -23.2693 -23.2150 -23.2113 -23.2100 -23.2047 -23.2034 -23.2013
   -22.0558 -22.0272 -22.0232 -22.0087  -6.9167  -6.7356  -6.3714  -6.1152
    -6.0750  -5.9903  -5.8023  -5.7852  -5.5010  -5.4116  -5.4073  -5.3541
    -4.3003  -4.2850  -4.1525  -4.0709  -4.0707  -4.0306  -4.0167  -3.9843
    -3.9575  -3.7218  -3.6508  -3.6148   5.2414   5.2882   5.3041   5.3250
     5.4700   5.5637   5.7132   6.2060   6.2886   6.3217   7.0862   7.2288
     7.2531   7.3783   7.5554   7.5994   7.6853   7.7041   7.7475   8.3783
     8.4857   8.6695   8.7288   8.7462   8.8652   8.8942   9.1098   9.1132
     9.2729   9.4375   9.5452   9.6187  10.0204  10.0509  10.0591  10.0809
    11.8342  11.9238  12.0079  12.1553  14.1297  14.1352  14.1904  14.2998
    14.9193  14.9568  15.1661  15.1803  15.7770  15.8454  15.8684  15.9028
    16.1105  16.2165  16.5360  17.2138  17.3199

          k = 0.0000 0.2000 0.0000 ( 18509 PWs)   bands (ev):

   -48.9858 -48.9845 -48.9837 -48.9824 -23.2971 -23.2830 -23.2812 -23.2757
   -23.2702 -23.2662 -23.2189 -23.2144 -23.2097 -23.2079 -23.2044 -23.2038
   -22.0533 -22.0267 -22.0238 -22.0100  -6.8646  -6.7335  -6.4252  -6.0990
    -6.0611  -5.9639  -5.8131  -5.7579  -5.5927  -5.4507  -5.4456  -5.3867
    -4.2928  -4.2448  -4.0942  -4.0842  -4.0562  -4.0222  -4.0190  -3.9486
    -3.9146  -3.7407  -3.6594  -3.6326   5.2605   5.2882   5.4150   5.4360
     5.5550   5.6852   5.8039   6.1700   6.3111   6.3779   6.8846   7.2464
     7.2548   7.3034   7.4551   7.4743   7.6272   7.6344   7.7302   8.5242
     8.5439   8.5894   8.6675   8.7459   8.7644   8.9076   8.9351   9.1112
     9.1811   9.2780   9.4373   9.5509   9.9759   9.9797   9.9995  10.0643
    11.9575  12.0701  12.2090  12.3643  14.0683  14.0870  14.1481  14.3154
    14.8332  14.9002  15.0535  15.1338  15.7966  16.0257  16.0863  16.0934
    16.2400  16.3962  16.5183  17.3212  17.4384

          k = 0.0000 0.2500 0.0000 ( 18505 PWs)   bands (ev):

   -48.9857 -48.9844 -48.9838 -48.9826 -23.2959 -23.2835 -23.2781 -23.2719
   -23.2663 -23.2623 -23.2237 -23.2182 -23.2118 -23.2094 -23.2083 -23.2043
   -22.0503 -22.0261 -22.0245 -22.0115  -6.7989  -6.7310  -6.4796  -6.0756
    -6.0439  -5.9307  -5.8269  -5.7378  -5.6986  -5.4974  -5.4807  -5.4267
    -4.2830  -4.2045  -4.1005  -4.0382  -4.0311  -4.0290  -4.0018  -3.9082
    -3.8702  -3.7637  -3.6695  -3.6553   5.2749   5.2883   5.5539   5.5753
     5.6577   5.8414   5.9220   6.1323   6.3405   6.4551   6.6981   7.1188
     7.2859   7.3248   7.3373   7.3676   7.5179   7.5474   7.7084   8.3130
     8.5334   8.6200   8.6470   8.6589   8.7887   8.8011   9.0438   9.1014
     9.1081   9.1115   9.3451   9.4737   9.8811   9.9234   9.9278  10.0380
    12.1050  12.2409  12.4310  12.5991  13.9580  13.9766  14.1732  14.3389
    14.6833  14.8618  14.9019  15.0730  15.8358  16.1772  16.3624  16.3772
    16.4218  16.4919  16.6089  17.4509  17.5742

          k = 0.0000 0.3000 0.0000 ( 18523 PWs)   bands (ev):

   -48.9856 -48.9843 -48.9840 -48.9827 -23.2945 -23.2842 -23.2743 -23.2675
   -23.2617 -23.2578 -23.2292 -23.2228 -23.2164 -23.2129 -23.2090 -23.2048
   -22.0470 -22.0256 -22.0254 -22.0132  -6.7273  -6.7204  -6.5312  -6.0446
    -6.0241  -5.8913  -5.8434  -5.8142  -5.7295  -5.5416  -5.5138  -5.4728
    -4.2710  -4.1682  -4.1191  -4.0370  -4.0169  -3.9779  -3.9682  -3.8661
    -3.8293  -3.7897  -3.6825  -3.6809   5.2842   5.2886   5.7180   5.7404
     5.7782   6.0278   6.0603   6.0985   6.3773   6.5315   6.5575   6.9987
     7.1573   7.2068   7.3213   7.3742   7.4134   7.4491   7.6824   8.0626
     8.4007   8.4686   8.5003   8.7034   8.8328   8.9445   8.9499   9.0673
     9.0710   9.1767   9.2989   9.3912   9.7711   9.8471   9.8540  10.0002
    12.2720  12.4281  12.6643  12.8487  13.8069  13.8615  14.2007  14.3723
    14.5172  14.7291  14.8051  14.9932  15.8940  16.3513  16.4554  16.5811
    16.7050  16.7297  16.8436  17.5975  17.7201

          k = 0.0000 0.3500 0.0000 ( 18495 PWs)   bands (ev):

   -48.9854 -48.9842 -48.9840 -48.9829 -23.2930 -23.2851 -23.2699 -23.2625
   -23.2566 -23.2527 -23.2351 -23.2280 -23.2216 -23.2180 -23.2085 -23.2053
   -22.0435 -22.0271 -22.0244 -22.0150  -6.7214  -6.6303  -6.5779  -6.0063
    -6.0021  -5.9357  -5.8624  -5.8466  -5.7385  -5.5759  -5.5427  -5.5237
    -4.2567  -4.1393  -4.1382  -4.0462  -3.9928  -3.9468  -3.9096  -3.8256
    -3.8181  -3.7963  -3.7139  -3.6940   5.2891   5.2893   5.9039   5.9149
     5.9282   6.0744   6.2089   6.2400   6.3890   6.4218   6.6905   6.8879
     6.9777   7.0698   7.1988   7.2439   7.3566   7.5379   7.6531   7.7995
     8.1408   8.3157   8.4730   8.7374   8.8032   8.8789   9.0085   9.0763
     9.0939   9.3062   9.3068   9.3151   9.6514   9.7617   9.7738   9.9494
    12.4539  12.6246  12.9027  13.1038  13.6385  13.7251  14.1932  14.3773
    14.4170  14.5377  14.7347  14.9023  15.9661  16.4082  16.5420  16.8052
    17.0566  17.0896  17.0904  17.7051  17.7537

          k = 0.0000 0.4000 0.0000 ( 18530 PWs)   bands (ev):

   -48.9852 -48.9844 -48.9839 -48.9831 -23.2915 -23.2861 -23.2649 -23.2571
   -23.2510 -23.2472 -23.2413 -23.2335 -23.2272 -23.2236 -23.2080 -23.2058
   -22.0401 -22.0289 -22.0232 -22.0169  -6.7122  -6.6183  -6.5299  -6.0598
    -5.9786  -5.9617  -5.8834  -5.7974  -5.7675  -5.5944  -5.5777  -5.5663
    -4.2404  -4.1603  -4.1147  -4.0564  -3.9664  -3.9097  -3.8583  -3.8478
    -3.7900  -3.7753  -3.7491  -3.7090   5.2898   5.2915   6.0636   6.0653
     6.1073   6.1350   6.2763   6.3583   6.4734   6.4741   6.7872   6.7919
     6.8571   6.9295   6.9987   7.0402   7.3855   7.5290   7.6220   7.6418
     7.8856   8.1656   8.4624   8.6788   8.7693   8.9339   8.9460   9.1206
     9.2232   9.2324   9.3471   9.4447   9.5280   9.6785   9.6840   9.8843
    12.6465  12.8245  13.1423  13.3406  13.4745  13.5701  14.0488  14.3297
    14.3697  14.4740  14.6564  14.8070  16.0459  16.3505  16.7429  17.0527
    17.3373  17.4168  17.4715  17.5345  17.9077

          k = 0.0000 0.4500 0.0000 ( 18522 PWs)   bands (ev):

   -48.9850 -48.9846 -48.9837 -48.9833 -23.2900 -23.2873 -23.2595 -23.2513
   -23.2475 -23.2452 -23.2414 -23.2394 -23.2331 -23.2294 -23.2075 -23.2064
   -22.0368 -22.0312 -22.0219 -22.0187  -6.6982  -6.6518  -6.4208  -6.1836
    -5.9544  -5.9126  -5.9061  -5.8111  -5.7447  -5.6335  -5.5993  -5.5838
    -4.2221  -4.1816  -4.0961  -4.0679  -3.9382  -3.8782  -3.8693  -3.8161
    -3.7874  -3.7707  -3.7616  -3.7249   5.2906   5.2920   6.0760   6.1557
     6.2612   6.3226   6.3561   6.5041   6.5327   6.6051   6.6979   6.7237
     6.7847   6.7882   6.8170   7.0525   7.2563   7.3792   7.5936   7.6702
     7.7577   8.0211   8.4745   8.5815   8.8037   8.8903   8.9968   9.1426
     9.1959   9.3600   9.4067   9.4070   9.5238   9.5852   9.6368   9.8047
    12.8458  13.0230  13.2443  13.3802  13.3993  13.6296  13.8397  14.1071
    14.4251  14.5432  14.5754  14.7125  16.1282  16.2833  16.9479  17.3209
    17.3484  17.5770  17.7598  17.8620  17.8951

          k = 0.0000 0.5000 0.0000 ( 18550 PWs)   bands (ev):

   -48.9849 -48.9847 -48.9835 -48.9834 -23.2887 -23.2885 -23.2537 -23.2536
   -23.2454 -23.2453 -23.2392 -23.2391 -23.2355 -23.2353 -23.2070 -23.2069
   -22.0338 -22.0338 -22.0203 -22.0203  -6.6784  -6.6783  -6.3047  -6.3047
    -5.9300  -5.9300  -5.8613  -5.8612  -5.6896  -5.6896  -5.5950  -5.5950
    -4.2024  -4.2024  -4.0809  -4.0809  -3.9086  -3.9086  -3.8279  -3.8279
    -3.7854  -3.7854  -3.7411  -3.7411   5.2914   5.2915   6.1091   6.1092
     6.4229   6.4229   6.5304   6.5304   6.5859   6.5859   6.6333   6.6334
     6.6467   6.6467   6.9863   6.9863   7.2541   7.2541   7.5846   7.5846
     7.8846   7.8846   8.5134   8.5135   8.8433   8.8433   9.0667   9.0667
     9.2938   9.2938   9.4764   9.4764   9.4774   9.4774   9.7130   9.7131
    13.0471  13.0472  13.2158  13.2159  13.6138  13.6139  13.8722  13.8723
    14.4966  14.4967  14.6234  14.6235  16.2084  16.2085  17.1514  17.1514
    17.6052  17.6052  17.7969  17.7969  18.0079

          k = 0.0500 0.5000 0.0000 ( 18528 PWs)   bands (ev):

   -48.9849 -48.9847 -48.9835 -48.9834 -23.2886 -23.2885 -23.2567 -23.2566
   -23.2486 -23.2486 -23.2362 -23.2361 -23.2322 -23.2321 -23.2070 -23.2068
   -22.0337 -22.0337 -22.0204 -22.0204  -6.6894  -6.6894  -6.3044  -6.3044
    -5.9371  -5.9371  -5.8439  -5.8439  -5.6919  -5.6919  -5.5981  -5.5980
    -4.1957  -4.1957  -4.0796  -4.0796  -3.9158  -3.9158  -3.8255  -3.8255
    -3.7792  -3.7792  -3.7368  -3.7368   5.2909   5.2909   6.0762   6.0763
     6.3095   6.3095   6.4231   6.4231   6.6046   6.6046   6.6632   6.6633
     6.7729   6.7729   7.0353   7.0353   7.2944   7.2944   7.5951   7.5951
     7.8809   7.8810   8.5039   8.5039   8.8502   8.8502   9.0751   9.0751
     9.2802   9.2802   9.4077   9.4077   9.4780   9.4780   9.7479   9.7479
    12.9335  12.9336  13.3252  13.3252  13.6319  13.6320  13.8862  13.8863
    14.4819  14.4820  14.6413  14.6414  16.1968  16.1969  17.1602  17.1602
    17.5861  17.5861  17.8065  17.8065  17.9098

          k = 0.1000 0.5000 0.0000 ( 18512 PWs)   bands (ev):

   -48.9849 -48.9847 -48.9835 -48.9834 -23.2885 -23.2883 -23.2627 -23.2626
   -23.2542 -23.2542 -23.2305 -23.2304 -23.2266 -23.2265 -23.2070 -23.2068
   -22.0332 -22.0332 -22.0206 -22.0206  -6.7198  -6.7198  -6.3035  -6.3035
    -5.9496  -5.9496  -5.8054  -5.8054  -5.6984  -5.6984  -5.6046  -5.6046
    -4.1769  -4.1769  -4.0760  -4.0760  -3.9331  -3.9331  -3.8185  -3.8185
    -3.7662  -3.7662  -3.7225  -3.7225   5.2891   5.2891   5.9957   5.9958
     6.1368   6.1368   6.2227   6.2227   6.6904   6.6904   6.7309   6.7309
     6.8722   6.8722   7.1545   7.1545   7.3928   7.3928   7.6395   7.6395
     7.8705   7.8705   8.4752   8.4752   8.8726   8.8727   9.0992   9.0992
     9.2413   9.2413   9.3022   9.3022   9.4173   9.4173   9.8182   9.8182
    12.7634  12.7634  13.4823  13.4823  13.6835  13.6836  13.9269  13.9270
    14.4511  14.4511  14.6812  14.6813  16.1612  16.1613  17.1852  17.1852
    17.5471  17.5471  17.7303  17.7304  17.8246

          k = 0.1500 0.5000 0.0000 ( 18510 PWs)   bands (ev):

   -48.9849 -48.9847 -48.9835 -48.9834 -23.2883 -23.2882 -23.2691 -23.2690
   -23.2600 -23.2600 -23.2245 -23.2244 -23.2208 -23.2208 -23.2069 -23.2068
   -22.0325 -22.0325 -22.0209 -22.0209  -6.7630  -6.7630  -6.3022  -6.3022
    -5.9618  -5.9618  -5.7657  -5.7657  -5.7085  -5.7085  -5.6049  -5.6048
    -4.1491  -4.1491  -4.0710  -4.0710  -3.9544  -3.9544  -3.8073  -3.8073
    -3.7529  -3.7529  -3.6985  -3.6985   5.2858   5.2859   5.8940   5.8940
     5.9601   5.9601   6.0270   6.0270   6.7708   6.7708   6.8182   6.8182
     6.9343   6.9343   7.2949   7.2949   7.4770   7.4770   7.7552   7.7552
     7.8552   7.8552   8.4282   8.4282   8.9127   8.9127   9.1309   9.1309
     9.1808   9.1808   9.1871   9.1871   9.3190   9.3190   9.8905   9.8905
    12.5910  12.5910  13.6329  13.6329  13.7603  13.7604  13.9897  13.9897
    14.4170  14.4170  14.7284  14.7284  16.1009  16.1010  17.2227  17.2227
    17.5130  17.5130  17.5300  17.5300  17.8442

          k = 0.2000 0.5000 0.0000 ( 18506 PWs)   bands (ev):

   -48.9849 -48.9847 -48.9835 -48.9834 -23.2881 -23.2880 -23.2752 -23.2751
   -23.2654 -23.2654 -23.2188 -23.2188 -23.2154 -23.2154 -23.2069 -23.2067
   -22.0316 -22.0316 -22.0213 -22.0213  -6.8120  -6.8120  -6.3005  -6.3005
    -5.9735  -5.9734  -5.7470  -5.7469  -5.7209  -5.7209  -5.5814  -5.5814
    -4.1169  -4.1169  -4.0653  -4.0653  -3.9761  -3.9761  -3.7925  -3.7925
    -3.7388  -3.7388  -3.6695  -3.6695   5.2805   5.2806   5.7781   5.7781
     5.8020   5.8020   5.8468   5.8468   6.8575   6.8575   6.9122   6.9122
     6.9808   6.9808   7.4259   7.4259   7.5196   7.5197   7.8300   7.8301
     7.9402   7.9402   8.3666   8.3667   8.9649   8.9650   9.0456   9.0456
     9.0918   9.0918   9.1986   9.1987   9.2122   9.2122   9.9543   9.9543
    12.4246  12.4246  13.7691  13.7691  13.8512  13.8513  14.0678  14.0679
    14.3844  14.3845  14.7756  14.7756  16.0194  16.0195  17.2661  17.2661
    17.3237  17.3237  17.4963  17.4963  17.8660

          k = 0.2500 0.5000 0.0000 ( 18562 PWs)   bands (ev):

   -48.9849 -48.9847 -48.9835 -48.9834 -23.2881 -23.2880 -23.2806 -23.2805
   -23.2703 -23.2703 -23.2137 -23.2137 -23.2107 -23.2107 -23.2066 -23.2065
   -22.0306 -22.0306 -22.0217 -22.0217  -6.8609  -6.8609  -6.2986  -6.2986
    -5.9845  -5.9845  -5.7538  -5.7538  -5.7344  -5.7344  -5.5329  -5.5329
    -4.0850  -4.0850  -4.0599  -4.0599  -3.9967  -3.9967  -3.7755  -3.7755
    -3.7222  -3.7222  -3.6398  -3.6398   5.2722   5.2723   5.6339   5.6339
     5.6893   5.6893   5.6934   5.6934   6.9544   6.9544   7.0064   7.0064
     7.0223   7.0223   7.5332   7.5332   7.5461   7.5462   7.8074   7.8074
     8.1357   8.1357   8.2956   8.2956   8.8916   8.8916   8.9869   8.9870
     9.0076   9.0076   9.1601   9.1601   9.2533   9.2534  10.0068  10.0068
    12.2697  12.2697  13.8873  13.8873  13.9437  13.9438  14.1527  14.1528
    14.3564  14.3564  14.8175  14.8175  15.9255  15.9256  17.1229  17.1229
    17.3087  17.3087  17.4996  17.4996  17.8889

          k = 0.3000 0.5000 0.0000 ( 18510 PWs)   bands (ev):

   -48.9849 -48.9847 -48.9835 -48.9834 -23.2889 -23.2888 -23.2844 -23.2843
   -23.2745 -23.2745 -23.2094 -23.2094 -23.2079 -23.2078 -23.2052 -23.2051
   -22.0296 -22.0296 -22.0222 -22.0222  -6.9055  -6.9055  -6.2967  -6.2967
    -5.9946  -5.9945  -5.7717  -5.7717  -5.7476  -5.7476  -5.4765  -5.4765
    -4.0576  -4.0576  -4.0553  -4.0553  -4.0146  -4.0146  -3.7580  -3.7580
    -3.7034  -3.7034  -3.6124  -3.6124   5.2588   5.2589   5.5042   5.5042
     5.5612   5.5612   5.6026   5.6026   7.0477   7.0477   7.0615   7.0616
     7.1109   7.1109   7.5685   7.5685   7.6126   7.6126   7.7822   7.7822
     8.2194   8.2194   8.3210   8.3210   8.7221   8.7221   8.9204   8.9204
     8.9328   8.9328   9.2147   9.2147   9.3121   9.3121  10.0476  10.0476
    12.1313  12.1313  13.9857  13.9857  14.0256  14.0256  14.2353  14.2353
    14.3360  14.3361  14.8501  14.8501  15.8320  15.8321  16.9390  16.9391
    17.3462  17.3462  17.5182  17.5182  17.9096

          k = 0.3500 0.5000 0.0000 ( 18498 PWs)   bands (ev):

   -48.9849 -48.9847 -48.9835 -48.9834 -23.2913 -23.2913 -23.2856 -23.2855
   -23.2779 -23.2779 -23.2074 -23.2073 -23.2059 -23.2059 -23.2023 -23.2023
   -22.0286 -22.0286 -22.0226 -22.0226  -6.9428  -6.9428  -6.2950  -6.2950
    -6.0032  -6.0032  -5.7909  -5.7908  -5.7593  -5.7593  -5.4243  -5.4243
    -4.0517  -4.0517  -4.0419  -4.0419  -4.0241  -4.0241  -3.7417  -3.7417
    -3.6839  -3.6839  -3.5893  -3.5893   5.2379   5.2379   5.3991   5.3991
     5.4685   5.4685   5.5276   5.5276   7.0975   7.0975   7.1184   7.1184
     7.2400   7.2400   7.5899   7.5899   7.6659   7.6659   7.7567   7.7568
     8.1380   8.1380   8.4801   8.4801   8.5533   8.5533   8.8401   8.8401
     8.8673   8.8673   9.3016   9.3016   9.3675   9.3676  10.0774  10.0774
    12.0148  12.0148  14.0630  14.0630  14.0861  14.0862  14.3074  14.3075
    14.3271  14.3271  14.8708  14.8708  15.7514  15.7514  16.7831  16.7832
    17.3774  17.3774  17.5429  17.5429  17.9257

          k = 0.4000 0.5000 0.0000 ( 18490 PWs)   bands (ev):

   -48.9849 -48.9847 -48.9835 -48.9834 -23.2939 -23.2939 -23.2858 -23.2857
   -23.2804 -23.2804 -23.2073 -23.2071 -23.2034 -23.2034 -23.1999 -23.1999
   -22.0279 -22.0279 -22.0229 -22.0229  -6.9708  -6.9707  -6.2937  -6.2937
    -6.0098  -6.0098  -5.8067  -5.8067  -5.7684  -5.7684  -5.3829  -5.3829
    -4.0492  -4.0492  -4.0477  -4.0477  -4.0152  -4.0152  -3.7286  -3.7286
    -3.6667  -3.6667  -3.5720  -3.5720   5.2105   5.2105   5.3221   5.3221
     5.4127   5.4127   5.4714   5.4714   7.1272   7.1272   7.1679   7.1679
     7.3862   7.3862   7.6105   7.6105   7.6980   7.6980   7.7327   7.7327
     8.0429   8.0429   8.4106   8.4106   8.6019   8.6019   8.7751   8.7751
     8.8167   8.8167   9.3808   9.3808   9.4134   9.4134  10.0972  10.0972
    11.9259  11.9259  14.1184  14.1185  14.1208  14.1208  14.3300  14.3300
    14.3629  14.3630  14.8807  14.8807  15.6920  15.6921  16.6646  16.6646
    17.4018  17.4018  17.5655  17.5655  17.9363

          k = 0.4500 0.5000 0.0000 ( 18536 PWs)   bands (ev):

   -48.9849 -48.9847 -48.9835 -48.9834 -23.2956 -23.2956 -23.2858 -23.2856
   -23.2819 -23.2819 -23.2072 -23.2071 -23.2019 -23.2019 -23.1984 -23.1984
   -22.0275 -22.0275 -22.0231 -22.0231  -6.9880  -6.9880  -6.2928  -6.2928
    -6.0140  -6.0140  -5.8170  -5.8170  -5.7742  -5.7742  -5.3565  -5.3565
    -4.0547  -4.0547  -4.0478  -4.0477  -4.0071  -4.0071  -3.7201  -3.7201
    -3.6547  -3.6547  -3.5613  -3.5613   5.1864   5.1864   5.2751   5.2751
     5.3861   5.3861   5.4365   5.4365   7.1470   7.1471   7.1978   7.1978
     7.5352   7.5352   7.6282   7.6282   7.7128   7.7129   7.7140   7.7140
     7.9267   7.9267   8.3208   8.3208   8.6778   8.6778   8.7332   8.7332
     8.7855   8.7855   9.4351   9.4351   9.4438   9.4438  10.1083  10.1083
    11.8700  11.8700  14.1350  14.1351  14.1517  14.1517  14.3378  14.3379
    14.3977  14.3978  14.8836  14.8836  15.6571  15.6571  16.5905  16.5905
    17.4177  17.4177  17.5807  17.5807  17.9420

          k = 0.5000 0.5000 0.0000 ( 18544 PWs)   bands (ev):

   -48.9849 -48.9847 -48.9835 -48.9834 -23.2962 -23.2961 -23.2858 -23.2856
   -23.2824 -23.2824 -23.2072 -23.2071 -23.2014 -23.2014 -23.1979 -23.1979
   -22.0273 -22.0273 -22.0231 -22.0231  -6.9939  -6.9938  -6.2925  -6.2925
    -6.0155  -6.0154  -5.8205  -5.8205  -5.7762  -5.7762  -5.3474  -5.3474
    -4.0572  -4.0572  -4.0473  -4.0473  -4.0044  -4.0043  -3.7171  -3.7171
    -3.6505  -3.6505  -3.5577  -3.5577   5.1770   5.1770   5.2593   5.2593
     5.3785   5.3785   5.4247   5.4247   7.1541   7.1541   7.2078   7.2078
     7.6274   7.6274   7.6364   7.6364   7.7040   7.7040   7.7178   7.7178
     7.8449   7.8449   8.2919   8.2919   8.7013   8.7013   8.7210   8.7210
     8.7751   8.7751   9.4543   9.4543   9.4544   9.4545  10.1118  10.1118
    11.8508  11.8508  14.1384  14.1385  14.1628  14.1628  14.3415  14.3416
    14.4096  14.4096  14.8839  14.8839  15.6457  15.6458  16.5653  16.5653
    17.4233  17.4233  17.5861  17.5861  17.9437

          k = 0.4500 0.4500 0.0000 ( 18524 PWs)   bands (ev):

   -48.9849 -48.9847 -48.9835 -48.9834 -23.2959 -23.2941 -23.2860 -23.2855
   -23.2823 -23.2805 -23.2073 -23.2071 -23.2034 -23.2014 -23.1999 -23.1980
   -22.0281 -22.0272 -22.0233 -22.0228  -6.9853  -6.9784  -6.3135  -6.2718
    -6.0188  -6.0085  -5.8134  -5.8109  -5.7774  -5.7685  -5.3708  -5.3622
    -4.0584  -4.0485  -4.0466  -4.0446  -4.0116  -4.0056  -3.7285  -3.7182
    -3.6620  -3.6593  -3.5684  -3.5615   5.1774   5.2100   5.2587   5.3230
     5.3799   5.4115   5.4449   5.4527   7.1138   7.1642   7.1680   7.2070
     7.3820   7.6209   7.6219   7.6253   7.6863   7.6936   7.7441   7.7503
     7.8698   8.0244   8.3145   8.3756   8.5963   8.7068   8.7198   8.7686
     8.7748   8.8258   9.3764   9.4104   9.4568   9.4577  10.0959  10.1118
    11.8464  11.9307  14.1190  14.1298  14.1411  14.1423  14.3226  14.3477
    14.3750  14.4072  14.8807  14.8860  15.6474  15.6894  16.5621  16.6663
    17.3724  17.4534  17.5353  17.6187  17.8973

          k = 0.4000 0.4000 0.0000 ( 18494 PWs)   bands (ev):

   -48.9849 -48.9846 -48.9836 -48.9833 -23.2950 -23.2889 -23.2869 -23.2841
   -23.2821 -23.2749 -23.2091 -23.2080 -23.2069 -23.2051 -23.2017 -23.1982
   -22.0303 -22.0269 -22.0236 -22.0216  -6.9607  -6.9333  -6.3717  -6.2110
    -6.0281  -5.9883  -5.7941  -5.7840  -5.7825  -5.7457  -5.4357  -5.4037
    -4.0622  -4.0524  -4.0446  -4.0324  -4.0114  -4.0072  -3.7619  -3.7196
    -3.6959  -3.6845  -3.5998  -3.5728   5.1785   5.2562   5.2571   5.3839
     5.5027   5.5087   5.5361   5.5573   7.0019   7.0093   7.0523   7.2082
     7.2684   7.5783   7.5936   7.6085   7.6175   7.6626   7.8324   7.8337
     7.9438   8.1517   8.3019   8.3740   8.5588   8.7092   8.7324   8.8040
     8.9216   8.9633   9.1891   9.2985   9.4647   9.4677  10.0437  10.1118
    11.8335  12.1485  14.0025  14.0043  14.0458  14.1490  14.3120  14.3247
    14.3650  14.4296  14.8399  14.8951  15.6525  15.8277  16.5503  16.9335
    17.2285  17.3946  17.5350  17.7211  17.7539

          k = 0.3500 0.3500 0.0000 ( 18530 PWs)   bands (ev):

   -48.9851 -48.9845 -48.9837 -48.9832 -23.2938 -23.2881 -23.2859 -23.2817
   -23.2768 -23.2661 -23.2181 -23.2149 -23.2075 -23.2065 -23.2020 -23.1985
   -22.0337 -22.0263 -22.0241 -22.0198  -6.9224  -6.8622  -6.4566  -6.1144
    -6.0414  -5.9572  -5.8018  -5.7718  -5.7369  -5.7084  -5.5242  -5.4644
    -4.0711  -4.0619  -4.0592  -4.0415  -4.0147  -3.9583  -3.8145  -3.7496
    -3.7234  -3.7166  -3.6497  -3.5905   5.1803   5.2546   5.2750   5.3897
     5.5944   5.6733   5.7973   5.8391   6.6702   6.8721   6.9077   7.2696
     7.3077   7.3640   7.5462   7.5967   7.6117   7.6274   7.8878   7.9523
     7.9599   8.0666   8.2403   8.4587   8.5568   8.7036   8.7696   8.9779
     9.0583   9.1225   9.1543   9.1596   9.4792   9.4842   9.9475  10.1113
    11.8139  12.4584  13.7659  13.7677  13.8287  14.1616  14.2807  14.3878
    14.3966  14.4985  14.7396  14.9144  15.6611  16.0282  16.5232  17.0161
    17.1876  17.2456  17.5150  17.6507  17.8982

          k = 0.3000 0.3000 0.0000 ( 18515 PWs)   bands (ev):

   -48.9852 -48.9843 -48.9839 -48.9830 -23.2928 -23.2892 -23.2850 -23.2812
   -23.2648 -23.2550 -23.2293 -23.2258 -23.2081 -23.2061 -23.2024 -23.1989
   -22.0381 -22.0257 -22.0247 -22.0176  -6.8751  -6.7708  -6.5570  -6.0571
    -5.9893  -5.9193  -5.8328  -5.7801  -5.6769  -5.6582  -5.5894  -5.5355
    -4.1065  -4.0752  -4.0706  -4.0372  -4.0209  -3.8996  -3.8809  -3.8189
    -3.7726  -3.7147  -3.7055  -3.6121   5.1825   5.2516   5.2818   5.3959
     5.7098   5.8616   6.1619   6.2136   6.3600   6.7278   6.7584   7.0314
     7.3391   7.3404   7.3663   7.4939   7.5436   7.6490   7.6663   8.1058
     8.1176   8.2382   8.3308   8.4661   8.5624   8.7047   8.8279   8.8529
     9.0271   9.3385   9.3449   9.3657   9.5004   9.5071   9.8005  10.1100
    11.7898  12.8169  13.4449  13.4518  13.5227  14.1741  14.2717  14.4514
    14.4898  14.6060  14.6111  14.9435  15.6729  16.2204  16.4695  16.7660
    16.9397  17.2025  17.4098  17.7878  18.1394

          k = 0.2500 0.2500 0.0000 ( 18537 PWs)   bands (ev):

   -48.9854 -48.9842 -48.9840 -48.9828 -23.2935 -23.2886 -23.2843 -23.2806
   -23.2511 -23.2428 -23.2417 -23.2380 -23.2086 -23.2056 -23.2029 -23.1992
   -22.0430 -22.0254 -22.0250 -22.0151  -6.8252  -6.6665  -6.6629  -6.0739
    -5.8802  -5.8739  -5.8571  -5.8460  -5.6104  -5.6050  -5.5974  -5.5783
    -4.1501  -4.0923  -4.0878  -4.0318  -4.0273  -3.9500  -3.8974  -3.8415
    -3.8269  -3.7893  -3.6861  -3.6333   5.1849   5.2479   5.2847   5.4001
     5.8384   6.0845   6.0972   6.5404   6.5918   6.6236   6.6326   6.6442
     6.8465   7.3713   7.4329   7.4640   7.4836   7.6773   7.6777   8.2881
     8.3041   8.3637   8.4259   8.4599   8.6793   8.7248   8.7805   8.9104
     8.9212   9.5259   9.5345   9.5671   9.5739   9.5946   9.6004  10.1075
    11.7640  13.0768  13.0864  13.1678  13.1884  14.1786  14.2704  14.4586
    14.5734  14.6142  14.7425  14.9815  15.6872  16.3634  16.3742  16.5066
    16.6763  16.8545  17.4004  17.6613  17.9365

          k = 0.2000 0.2000 0.0000 ( 18531 PWs)   bands (ev):

   -48.9856 -48.9843 -48.9839 -48.9826 -23.2952 -23.2872 -23.2836 -23.2802
   -23.2539 -23.2500 -23.2373 -23.2306 -23.2092 -23.2050 -23.2032 -23.1995
   -22.0480 -22.0261 -22.0243 -22.0126  -6.7814  -6.7650  -6.5574  -6.0907
    -5.9526  -5.9191  -5.8467  -5.6976  -5.6773  -5.5315  -5.5290  -5.5274
    -4.1937  -4.1378  -4.1082  -4.0331  -4.0257  -4.0017  -3.9739  -3.8870
    -3.8669  -3.7857  -3.6611  -3.6493   5.1873   5.2432   5.2862   5.3974
     5.8508   5.9678   6.2018   6.3768   6.3775   6.4764   6.4865   6.9743
     7.0381   7.3268   7.3825   7.5014   7.5473   7.7030   7.7089   8.2674
     8.4908   8.5105   8.5156   8.7289   8.7447   8.7661   8.8042   8.8689
     9.0191   9.3473   9.5601   9.5694   9.7569   9.7666   9.8038  10.1034
    11.7392  12.6919  12.7017  12.7960  13.5421  14.1700  14.2715  14.3719
    14.6971  14.7417  14.8979  15.0304  15.7027  16.2217  16.2604  16.4195
    16.4549  16.5120  17.1076  17.3241  17.8779

          k = 0.1500 0.1500 0.0000 ( 18527 PWs)   bands (ev):

   -48.9858 -48.9845 -48.9837 -48.9824 -23.2969 -23.2858 -23.2830 -23.2801
   -23.2646 -23.2606 -23.2250 -23.2198 -23.2097 -23.2044 -23.2033 -23.1996
   -22.0525 -22.0267 -22.0236 -22.0103  -6.8548  -6.7516  -6.4527  -6.1065
    -6.0274  -5.9615  -5.8258  -5.7342  -5.5601  -5.4672  -5.4589  -5.4577
    -4.2341  -4.2078  -4.1456  -4.0381  -4.0304  -4.0269  -4.0195  -3.9426
    -3.9388  -3.7426  -3.6558  -3.6349   5.1894   5.2359   5.2871   5.3772
     5.6639   5.8272   5.9923   6.0854   6.3799   6.3902   6.6912   7.2725
     7.2966   7.3169   7.3769   7.5646   7.6159   7.7292   7.7380   8.1801
     8.5850   8.6988   8.7217   8.7233   8.7535   8.9088   8.9691   9.0542
     9.0669   9.1492   9.6001   9.6094   9.9037   9.9327   9.9583  10.0974
    11.7177  12.3211  12.3288  12.4383  13.8480  14.1495  14.2736  14.3184
    14.8440  14.8465  15.0595  15.0945  15.7169  16.0104  16.0450  16.1549
    16.2384  16.5081  16.6090  17.2372  17.5819

          k = 0.1000 0.1000 0.0000 ( 18547 PWs)   bands (ev):

   -48.9860 -48.9847 -48.9836 -48.9823 -23.2983 -23.2853 -23.2825 -23.2806
   -23.2725 -23.2684 -23.2157 -23.2121 -23.2101 -23.2036 -23.2028 -23.1991
   -22.0562 -22.0272 -22.0231 -22.0085  -6.9250  -6.7389  -6.3625  -6.1203
    -6.0708  -5.9956  -5.8244  -5.7709  -5.4518  -5.4112  -5.3974  -5.3886
    -4.2798  -4.2697  -4.1948  -4.0618  -4.0428  -4.0377  -4.0142  -3.9952
    -3.9889  -3.7143  -3.6514  -3.6122   5.1909   5.2201   5.2878   5.3177
     5.5246   5.5441   5.7391   6.1794   6.3101   6.3190   7.0334   7.2286
     7.2426   7.5736   7.5782   7.6158   7.6701   7.7509   7.7615   8.1022
     8.5443   8.7077   8.7248   8.8558   8.8856   8.9121   9.0085   9.1685
     9.2845   9.3725   9.6473   9.6557  10.0035  10.0532  10.0623  10.0903
    11.7006  12.0000  12.0046  12.1298  14.0742  14.1278  14.2796  14.2948
    14.9015  14.9869  15.1523  15.2085  15.7192  15.7753  15.8716  15.8968
    16.0707  16.2371  16.5366  17.1612  17.3407

          k = 0.0500 0.0500 0.0000 ( 18577 PWs)   bands (ev):

   -48.9861 -48.9847 -48.9835 -48.9822 -23.2992 -23.2861 -23.2822 -23.2820
   -23.2765 -23.2724 -23.2108 -23.2103 -23.2085 -23.2027 -23.2014 -23.1979
   -22.0585 -22.0275 -22.0228 -22.0074  -6.9696  -6.7377  -6.2991  -6.1294
    -6.0890  -6.0176  -5.8389  -5.7847  -5.3871  -5.3708  -5.3556  -5.3324
    -4.3330  -4.2980  -4.2309  -4.0815  -4.0487  -4.0423  -4.0271  -4.0178
    -4.0107  -3.7001  -3.6423  -3.5970   5.1845   5.1904   5.2293   5.2882
     5.3823   5.4464   5.6315   6.2400   6.2678   6.2756   7.1992   7.2052
     7.3879   7.6493   7.6748   7.7083   7.7282   7.7651   7.7776   8.0065
     8.3128   8.7074   8.7242   8.8093   9.0108   9.0463   9.0830   9.3556
     9.3949   9.6237   9.6957   9.7038  10.0470  10.0892  10.1215  10.1219
    11.6851  11.7738  11.7795  11.9135  14.1138  14.1866  14.2860  14.3044
    14.9199  15.0874  15.1496  15.3187  15.5888  15.6608  15.7552  15.8032
    15.9757  16.0302  16.5501  17.1000  17.1884

          k = 0.0000 0.0000 0.0000 ( 18577 PWs)   bands (ev):

   -48.9861 -48.9848 -48.9835 -48.9822 -23.2996 -23.2868 -23.2828 -23.2821
   -23.2775 -23.2734 -23.2104 -23.2096 -23.2076 -23.2024 -23.2005 -23.1971
   -22.0593 -22.0277 -22.0227 -22.0070  -6.9849  -6.7388  -6.2757  -6.1323
    -6.0936  -6.0252  -5.8469  -5.7881  -5.3662  -5.3560  -5.3407  -5.3101
    -4.3527  -4.3098  -4.2429  -4.0899  -4.0529  -4.0436  -4.0362  -4.0261
    -4.0094  -3.6959  -3.6380  -3.5916   5.1576   5.1789   5.1985   5.2883
     5.3431   5.4185   5.6067   6.2536   6.2603   6.2617   7.1881   7.1934
     7.6582   7.6635   7.6973   7.7260   7.7700   7.7735   7.7892   7.8381
     8.2026   8.7018   8.7319   8.8063   9.0498   9.0943   9.1158   9.4250
     9.4456   9.7122   9.7190   9.7374  10.0507  10.0934  10.1406  10.1429
    11.6615  11.6906  11.7146  11.8343  14.1093  14.2072  14.2839  14.3268
    14.9189  15.1240  15.1260  15.3604  15.5187  15.6279  15.7205  15.7966
    15.9451  15.9665  16.5540  17.0669  17.1291

          k = 0.0000 0.0000 0.0354 ( 18581 PWs)   bands (ev):

   -48.9861 -48.9848 -48.9835 -48.9822 -23.2990 -23.2867 -23.2828 -23.2817
   -23.2774 -23.2734 -23.2109 -23.2095 -23.2078 -23.2028 -23.2004 -23.1971
   -22.0591 -22.0278 -22.0226 -22.0071  -6.9829  -6.7386  -6.2706  -6.1309
    -6.0933  -6.0259  -5.8457  -5.7856  -5.3698  -5.3623  -5.3462  -5.3146
    -4.3507  -4.3044  -4.2379  -4.0896  -4.0531  -4.0404  -4.0363  -4.0262
    -4.0117  -3.6989  -3.6411  -3.5940   5.1577   5.1788   5.2080   5.3039
     5.3435   5.4236   5.6138   6.2484   6.2639   6.2653   7.1768   7.1825
     7.6475   7.6578   7.7145   7.7387   7.7571   7.7724   7.7880   7.8443
     8.2093   8.6755   8.7457   8.8182   9.0390   9.0879   9.1035   9.4253
     9.4465   9.6929   9.7057   9.7308  10.0470  10.0882  10.1410  10.1449
    11.6837  11.6914  11.7359  11.8333  14.0985  14.2113  14.2692  14.3311
    14.9317  15.1188  15.1251  15.3589  15.5187  15.6240  15.7316  15.8025
    15.9549  15.9774  16.5783  17.0833  17.1331

          k = 0.0000 0.0000 0.0707 ( 18581 PWs)   bands (ev):

   -48.9861 -48.9848 -48.9834 -48.9822 -23.2975 -23.2866 -23.2829 -23.2802
   -23.2774 -23.2735 -23.2126 -23.2095 -23.2083 -23.2037 -23.2004 -23.1972
   -22.0585 -22.0284 -22.0223 -22.0074  -6.9769  -6.7384  -6.2555  -6.1261
    -6.0924  -6.0279  -5.8422  -5.7784  -5.3812  -5.3805  -5.3622  -5.3275
    -4.3448  -4.2887  -4.2232  -4.0890  -4.0538  -4.0365  -4.0308  -4.0267
    -4.0183  -3.7079  -3.6502  -3.6013   5.1581   5.1784   5.2342   5.3448
     5.3505   5.4387   5.6371   6.2330   6.2747   6.2760   7.1444   7.1514
     7.6323   7.6480   7.7184   7.7489   7.7690   7.7691   7.7842   7.8631
     8.2284   8.5983   8.7857   8.8533   9.0070   9.0675   9.0689   9.4266
     9.4492   9.6184   9.6880   9.7132  10.0347  10.0723  10.1420  10.1502
    11.6936  11.7483  11.7981  11.8303  14.0657  14.2236  14.2258  14.3438
    14.9638  15.0970  15.1286  15.3546  15.5189  15.6135  15.7650  15.8216
    15.9842  16.0133  16.6493  17.1315  17.1449

          k = 0.0000 0.0000 0.1061 ( 18573 PWs)   bands (ev):

   -48.9860 -48.9848 -48.9834 -48.9822 -23.2949 -23.2865 -23.2830 -23.2779
   -23.2772 -23.2736 -23.2154 -23.2097 -23.2094 -23.2048 -23.2003 -23.1973
   -22.0575 -22.0293 -22.0218 -22.0078  -6.9671  -6.7388  -6.2306  -6.1174
    -6.0909  -6.0311  -5.8368  -5.7666  -5.4119  -5.3972  -5.3877  -5.3479
    -4.3350  -4.2638  -4.1996  -4.0879  -4.0549  -4.0369  -4.0298  -4.0267
    -4.0154  -3.7227  -3.6653  -3.6133   5.1587   5.1778   5.2700   5.3468
     5.4270   5.4636   5.6828   6.2077   6.2925   6.2938   7.0950   7.1035
     7.6201   7.6408   7.6539   7.7635   7.7780   7.7925   7.8106   7.8942
     8.2578   8.4748   8.8480   8.9091   8.9550   9.0095   9.0382   9.4291
     9.4538   9.5054   9.6631   9.6893  10.0115  10.0457  10.1436  10.1565
    11.6972  11.8253  11.8498  11.8966  14.0101  14.1548  14.2441  14.3648
    14.9983  15.0613  15.1345  15.3475  15.5192  15.5991  15.8214  15.8589
    16.0323  16.0817  16.7617  17.1643  17.2081

          k = 0.0000 0.0000 0.1414 ( 18565 PWs)   bands (ev):

   -48.9860 -48.9849 -48.9833 -48.9823 -23.2914 -23.2862 -23.2832 -23.2771
   -23.2747 -23.2738 -23.2191 -23.2122 -23.2092 -23.2057 -23.2001 -23.1974
   -22.0562 -22.0306 -22.0212 -22.0085  -6.9536  -6.7410  -6.1963  -6.1035
    -6.0888  -6.0352  -5.8301  -5.7505  -5.4534  -5.4210  -5.4189  -5.3744
    -4.3216  -4.2311  -4.1685  -4.0863  -4.0564  -4.0442  -4.0373  -4.0281
    -3.9945  -3.7432  -3.6860  -3.6299   5.1596   5.1769   5.3056   5.3493
     5.4976   5.5315   5.7592   6.1732   6.3174   6.3186   7.0333   7.0433
     7.5639   7.6110   7.6378   7.7561   7.7696   7.8441   7.8610   7.9377
     8.2956   8.3124   8.8855   8.9278   8.9333   8.9821   8.9972   9.3650
     9.4335   9.4601   9.6354   9.6633   9.9762  10.0082  10.1459  10.1621
    11.7022  11.8186  11.9810  12.0249  13.9309  14.0581  14.2726  14.3941
    15.0126  15.0161  15.1429  15.3377  15.5197  15.5839  15.8988  15.9226
    16.0985  16.1894  16.9056  17.1907  17.3093

          k = 0.0000 0.0000 0.1768 ( 18561 PWs)   bands (ev):

   -48.9859 -48.9850 -48.9833 -48.9824 -23.2877 -23.2853 -23.2834 -23.2769
   -23.2740 -23.2708 -23.2237 -23.2159 -23.2091 -23.2062 -23.2000 -23.1976
   -22.0545 -22.0322 -22.0204 -22.0093  -6.9370  -6.7460  -6.1534  -6.0862
    -6.0834  -6.0400  -5.8236  -5.7306  -5.5045  -5.4594  -5.4440  -5.4055
    -4.3048  -4.1924  -4.1313  -4.0845  -4.0624  -4.0583  -4.0376  -4.0293
    -3.9690  -3.7690  -3.7121  -3.6507   5.1607   5.1758   5.3334   5.3524
     5.5399   5.6615   5.8717   6.1305   6.3492   6.3502   6.9639   6.9753
     7.4490   7.6021   7.6389   7.7469   7.7591   7.9035   7.9200   7.9933
     8.1215   8.3400   8.8021   8.8432   8.9474   9.0202   9.0685   9.2085
     9.4397   9.4682   9.6078   9.6378   9.9289   9.9598  10.1485  10.1662
    11.7085  11.8104  12.1349  12.1767  13.8286  13.9383  14.3089  14.4313
    14.9533  15.0066  15.1538  15.3254  15.5205  15.5698  15.9830  16.0257
    16.1814  16.3405  17.0651  17.2233  17.2391

          k = 0.0000 0.0000 0.2121 ( 18541 PWs)   bands (ev):

   -48.9858 -48.9850 -48.9832 -48.9824 -23.2863 -23.2836 -23.2812 -23.2766
   -23.2742 -23.2662 -23.2291 -23.2204 -23.2089 -23.2066 -23.1998 -23.1978
   -22.0526 -22.0340 -22.0194 -22.0102  -6.9176  -6.7547  -6.1025  -6.0830
    -6.0564  -6.0451  -5.8196  -5.7070  -5.5635  -5.4988  -5.4709  -5.4397
    -4.2851  -4.1493  -4.0895  -4.0836  -4.0823  -4.0605  -4.0377  -4.0305
    -3.9396  -3.7998  -3.7431  -3.6754   5.1620   5.1746   5.3516   5.3558
     5.5895   5.8138   6.0192   6.0809   6.3878   6.3882   6.8904   6.9032
     7.3107   7.5840   7.6439   7.7364   7.7470   7.9182   7.9714   7.9871
     8.0612   8.3900   8.7088   8.7440   8.8908   9.0457   9.1208   9.1641
     9.4480   9.4780   9.5820   9.6138   9.8700   9.9007  10.1516  10.1685
    11.7161  11.8009  12.3050  12.3458  13.7047  13.7983  14.3527  14.4761
    14.8861  14.9717  15.1672  15.3109  15.5215  15.5580  16.0769  16.1573
    16.2792  16.5329  17.1133  17.2176  17.2607

          k = 0.0000 0.0000 0.2475 ( 18554 PWs)   bands (ev):

   -48.9857 -48.9851 -48.9831 -48.9825 -23.2859 -23.2839 -23.2763 -23.2754
   -23.2745 -23.2610 -23.2351 -23.2256 -23.2086 -23.2069 -23.1995 -23.1980
   -22.0504 -22.0361 -22.0184 -22.0113  -6.8960  -6.7674  -6.0793  -6.0504
    -6.0446  -6.0227  -5.8218  -5.6803  -5.6286  -5.5338  -5.4982  -5.4757
    -4.2629  -4.1073  -4.1034  -4.0798  -4.0630  -4.0448  -4.0376  -4.0319
    -3.9074  -3.8350  -3.7785  -3.7035   5.1634   5.1731   5.3594   5.3621
     5.6451   5.9845   6.0238   6.1988   6.4320   6.4329   6.8158   6.8302
     7.1515   7.5142   7.6520   7.7250   7.7335   7.7547   8.0456   8.0622
     8.1414   8.4449   8.6097   8.6400   8.8292   8.8847   9.2257   9.2652
     9.4581   9.4895   9.5583   9.5914   9.8004   9.8313  10.1549  10.1692
    11.7248  11.7904  12.4859  12.5271  13.5616  13.6412  14.4037  14.5280
    14.8139  14.9187  15.1828  15.2945  15.5229  15.5484  16.1831  16.3067
    16.3898  16.7584  16.9790  17.1682  17.3028

          k = 0.0000 0.0000 0.2828 ( 18514 PWs)   bands (ev):

   -48.9856 -48.9852 -48.9830 -48.9826 -23.2855 -23.2842 -23.2760 -23.2748
   -23.2691 -23.2553 -23.2416 -23.2312 -23.2084 -23.2072 -23.1993 -23.1982
   -22.0481 -22.0383 -22.0173 -22.0124  -6.8730  -6.7840  -6.0753  -6.0557
    -5.9833  -5.9810  -5.8348  -5.6980  -5.6507  -5.5579  -5.5240  -5.5125
    -4.2386  -4.1327  -4.0771  -4.0657  -4.0560  -4.0372  -4.0332  -3.9983
    -3.8742  -3.8731  -3.8177  -3.7345   5.1650   5.1716   5.3628   5.3672
     5.7055   5.9633   6.1684   6.4020   6.4804   6.4842   6.7422   6.7593
     6.9762   7.3326   7.6627   7.6961   7.7132   7.7191   8.1273   8.1448
     8.2340   8.5041   8.5083   8.5346   8.7309   8.7644   9.3318   9.3685
     9.4702   9.5026   9.5368   9.5707   9.7209   9.7523  10.1583  10.1687
    11.7346  11.7792  12.6730  12.7159  13.4024  13.4703  14.4613  14.5863
    14.7395  14.8552  15.2002  15.2766  15.5248  15.5410  16.3005  16.4697
    16.5107  16.8399  17.0065  17.0403  17.1858

          k = 0.0000 0.0000 0.3182 ( 18522 PWs)   bands (ev):

   -48.9856 -48.9853 -48.9829 -48.9827 -23.2852 -23.2845 -23.2757 -23.2751
   -23.2624 -23.2494 -23.2485 -23.2372 -23.2081 -23.2075 -23.1990 -23.1985
   -22.0457 -22.0407 -22.0161 -22.0136  -6.8493  -6.8038  -6.0708  -6.0609
    -5.9406  -5.9130  -5.8611  -5.7698  -5.6187  -5.5670  -5.5490  -5.5461
    -4.2128  -4.1592  -4.0743  -4.0685  -4.0365  -4.0345  -4.0085  -3.9513
    -3.9166  -3.8601  -3.8378  -3.7677   5.1666   5.1700   5.3658   5.3687
     5.7690   5.8996   6.3576   6.5276   6.5414   6.6244   6.6712   6.6953
     6.7948   7.1001   7.6754   7.6878   7.7020   7.7042   8.2155   8.2343
     8.3391   8.4074   8.4306   8.5666   8.5879   8.6980   9.4365   9.4712
     9.4840   9.5173   9.5174   9.5514   9.6328   9.6650  10.1616  10.1670
    11.7452  11.7678  12.8620  12.9083  13.2303  13.2889  14.5247  14.6499
    14.6652  14.7868  15.2189  15.2576  15.5274  15.5352  16.4271  16.6393
    16.6431  16.6995  16.9073  17.0060  17.2682

          k = 0.0000 0.0000 0.3536 ( 18458 PWs)   bands (ev):

   -48.9855 -48.9854 -48.9829 -48.9828 -23.2849 -23.2848 -23.2755 -23.2754
   -23.2555 -23.2554 -23.2433 -23.2432 -23.2079 -23.2078 -23.1988 -23.1987
   -22.0432 -22.0432 -22.0148 -22.0148  -6.8259  -6.8259  -6.0660  -6.0660
    -5.8982  -5.8982  -5.8420  -5.8420  -5.5846  -5.5846  -5.5618  -5.5618
    -4.1861  -4.1861  -4.0714  -4.0714  -4.0356  -4.0356  -3.9617  -3.9617
    -3.9049  -3.9049  -3.8024  -3.8024   5.1683   5.1683   5.3680   5.3680
     5.8343   5.8343   6.5187   6.5187   6.6040   6.6040   6.6674   6.6675
     6.8595   6.8596   7.6895   7.6895   7.6926   7.6926   8.3093   8.3093
     8.3300   8.3300   8.4571   8.4571   8.6316   8.6317   9.4997   9.4998
     9.5337   9.5337   9.5375   9.5375   9.5707   9.5707  10.1646  10.1646
    11.7563  11.7564  13.0489  13.0490  13.1004  13.1005  14.5931  14.5932
    14.7174  14.7175  15.2382  15.2383  15.5307  15.5308  16.5610  16.5610
    16.7725  16.7725  16.8233  16.8234  17.4114

          k = 0.0000 0.0500 0.3536 ( 18504 PWs)   bands (ev):

   -48.9855 -48.9854 -48.9829 -48.9828 -23.2845 -23.2844 -23.2750 -23.2749
   -23.2554 -23.2553 -23.2434 -23.2433 -23.2084 -23.2083 -23.1993 -23.1992
   -22.0430 -22.0430 -22.0150 -22.0150  -6.8204  -6.8204  -6.0631  -6.0631
    -5.9134  -5.9134  -5.8413  -5.8413  -5.5871  -5.5871  -5.5603  -5.5603
    -4.1879  -4.1879  -4.0727  -4.0727  -4.0307  -4.0307  -3.9620  -3.9620
    -3.8979  -3.8979  -3.8020  -3.8019   5.1847   5.1848   5.3844   5.3845
     5.8423   5.8424   6.5172   6.5172   6.6083   6.6083   6.6624   6.6624
     6.8657   6.8657   7.6596   7.6596   7.6799   7.6800   8.2399   8.2399
     8.2715   8.2715   8.5254   8.5254   8.6930   8.6930   9.4469   9.4470
     9.5018   9.5018   9.5489   9.5489   9.5807   9.5807  10.1540  10.1541
    11.7961  11.7962  13.0538  13.0539  13.1048  13.1049  14.5891  14.5892
    14.7038  14.7039  15.2179  15.2180  15.5658  15.5659  16.5836  16.5836
    16.7876  16.7876  16.8391  16.8391  17.4236

          k = 0.0000 0.1000 0.3536 ( 18522 PWs)   bands (ev):

   -48.9854 -48.9853 -48.9829 -48.9828 -23.2833 -23.2832 -23.2736 -23.2735
   -23.2551 -23.2550 -23.2435 -23.2434 -23.2100 -23.2099 -23.2007 -23.2006
   -22.0423 -22.0423 -22.0153 -22.0153  -6.8043  -6.8042  -6.0545  -6.0545
    -5.9507  -5.9507  -5.8441  -5.8441  -5.5945  -5.5945  -5.5585  -5.5585
    -4.1917  -4.1917  -4.0763  -4.0763  -4.0172  -4.0172  -3.9629  -3.9629
    -3.8788  -3.8788  -3.8002  -3.8002   5.2338   5.2338   5.4328   5.4329
     5.8668   5.8668   6.5133   6.5133   6.6212   6.6213   6.6494   6.6494
     6.8818   6.8818   7.5688   7.5688   7.6499   7.6499   8.1280   8.1280
     8.1586   8.1586   8.6242   8.6242   8.8138   8.8138   9.3383   9.3383
     9.4335   9.4335   9.5457   9.5457   9.5884   9.5884  10.1232  10.1233
    11.9081  11.9081  13.0691  13.0692  13.1188  13.1188  14.5728  14.5729
    14.6636  14.6636  15.1584  15.1585  15.6723  15.6724  16.6491  16.6491
    16.8325  16.8325  16.8857  16.8857  17.4529

          k = 0.0000 0.1500 0.3536 ( 18518 PWs)   bands (ev):

   -48.9854 -48.9852 -48.9830 -48.9829 -23.2814 -23.2812 -23.2713 -23.2712
   -23.2546 -23.2545 -23.2438 -23.2437 -23.2126 -23.2125 -23.2030 -23.2029
   -22.0412 -22.0412 -22.0160 -22.0160  -6.7778  -6.7778  -6.0405  -6.0405
    -6.0001  -6.0001  -5.8529  -5.8529  -5.6067  -5.6067  -5.5618  -5.5618
    -4.1939  -4.1939  -4.0819  -4.0819  -3.9983  -3.9983  -3.9643  -3.9643
    -3.8515  -3.8515  -3.7958  -3.7958   5.3145   5.3145   5.5101   5.5102
     5.9086   5.9086   6.5079   6.5080   6.6327   6.6327   6.6429   6.6429
     6.9033   6.9033   7.4398   7.4398   7.5960   7.5960   8.0069   8.0070
     8.0363   8.0363   8.6887   8.6888   8.9450   8.9450   9.2110   9.2111
     9.3465   9.3466   9.5280   9.5280   9.5899   9.5899  10.0742  10.0742
    12.0753  12.0754  13.0968  13.0969  13.1441  13.1441  14.5360  14.5361
    14.5983  14.5984  15.0628  15.0628  15.8497  15.8498  16.7506  16.7506
    16.9056  16.9056  16.9605  16.9605  17.4868

          k = 0.0000 0.2000 0.3536 ( 18550 PWs)   bands (ev):

   -48.9853 -48.9851 -48.9831 -48.9830 -23.2787 -23.2785 -23.2682 -23.2681
   -23.2540 -23.2538 -23.2441 -23.2440 -23.2162 -23.2161 -23.2062 -23.2061
   -22.0398 -22.0398 -22.0169 -22.0169  -6.7420  -6.7420  -6.0560  -6.0560
    -6.0215  -6.0214  -5.8653  -5.8652  -5.6234  -5.6234  -5.5745  -5.5745
    -4.1913  -4.1913  -4.0891  -4.0891  -3.9789  -3.9789  -3.9660  -3.9660
    -3.8202  -3.8202  -3.7870  -3.7870   5.4254   5.4254   5.6106   5.6107
     5.9697   5.9697   6.5025   6.5025   6.6162   6.6162   6.6734   6.6734
     6.9259   6.9259   7.2934   7.2934   7.5170   7.5170   7.8776   7.8777
     7.9101   7.9101   8.6589   8.6589   9.0708   9.0708   9.1275   9.1275
     9.2596   9.2596   9.5039   9.5039   9.5866   9.5867  10.0101  10.0102
    12.2802  12.2803  13.1391  13.1392  13.1830  13.1831  14.4745  14.4746
    14.5108  14.5108  14.9354  14.9355  16.0912  16.0913  16.8783  16.8783
    17.0049  17.0049  17.0586  17.0586  17.5202

          k = 0.0000 0.2500 0.3536 ( 18528 PWs)   bands (ev):

   -48.9851 -48.9850 -48.9833 -48.9832 -23.2753 -23.2751 -23.2643 -23.2642
   -23.2532 -23.2531 -23.2446 -23.2445 -23.2205 -23.2204 -23.2101 -23.2100
   -22.0380 -22.0380 -22.0180 -22.0180  -6.6979  -6.6979  -6.1148  -6.1147
    -5.9981  -5.9981  -5.8778  -5.8778  -5.6443  -5.6443  -5.5983  -5.5983
    -4.1830  -4.1830  -4.0970  -4.0970  -3.9677  -3.9677  -3.9640  -3.9640
    -3.7885  -3.7885  -3.7719  -3.7719   5.5643   5.5644   5.7252   5.7252
     6.0531   6.0531   6.4968   6.4968   6.6046   6.6046   6.7128   6.7129
     6.9435   6.9435   7.1497   7.1497   7.4151   7.4151   7.7419   7.7419
     7.7737   7.7737   8.5051   8.5052   9.1239   9.1239   9.1562   9.1563
     9.2194   9.2194   9.4797   9.4797   9.5788   9.5788   9.9358   9.9358
    12.5087  12.5087  13.1979  13.1980  13.2379  13.2379  14.3891  14.3891
    14.4042  14.4042  14.7814  14.7814  16.3849  16.3849  17.0203  17.0203
    17.1272  17.1272  17.1723  17.1724  17.5545

          k = 0.0000 0.3000 0.3536 ( 18494 PWs)   bands (ev):

   -48.9850 -48.9848 -48.9834 -48.9833 -23.2712 -23.2711 -23.2598 -23.2597
   -23.2523 -23.2522 -23.2451 -23.2450 -23.2254 -23.2253 -23.2147 -23.2146
   -22.0360 -22.0360 -22.0194 -22.0194  -6.6470  -6.6470  -6.1742  -6.1742
    -5.9713  -5.9712  -5.8874  -5.8874  -5.6687  -5.6687  -5.6316  -5.6316
    -4.1698  -4.1698  -4.1048  -4.1048  -3.9694  -3.9694  -3.9564  -3.9564
    -3.7598  -3.7598  -3.7504  -3.7504   5.7287   5.7287   5.8422   5.8422
     6.1603   6.1603   6.4843   6.4843   6.6100   6.6100   6.7613   6.7614
     6.9240   6.9240   7.0528   7.0528   7.2934   7.2935   7.6043   7.6043
     7.6228   7.6228   8.2822   8.2823   9.1316   9.1316   9.1528   9.1528
     9.3037   9.3037   9.4606   9.4606   9.5654   9.5655   9.8573   9.8574
    12.7505  12.7506  13.2742  13.2743  13.3099  13.3099  14.2824  14.2825
    14.2833  14.2834  14.6052  14.6052  16.7173  16.7173  17.1633  17.1633
    17.2693  17.2693  17.2900  17.2901  17.5952

          k = 0.0000 0.3500 0.3536 ( 18514 PWs)   bands (ev):

   -48.9848 -48.9847 -48.9836 -48.9835 -23.2666 -23.2665 -23.2547 -23.2546
   -23.2513 -23.2512 -23.2458 -23.2457 -23.2308 -23.2307 -23.2199 -23.2198
   -22.0338 -22.0338 -22.0211 -22.0211  -6.5912  -6.5911  -6.2335  -6.2335
    -5.9423  -5.9423  -5.8919  -5.8919  -5.6955  -5.6954  -5.6706  -5.6706
    -4.1539  -4.1539  -4.1120  -4.1120  -3.9709  -3.9709  -3.9555  -3.9555
    -3.7354  -3.7354  -3.7268  -3.7268   5.9149   5.9150   5.9530   5.9530
     6.2819   6.2819   6.4541   6.4541   6.6520   6.6521   6.8186   6.8186
     6.8293   6.8293   7.0527   7.0527   7.1510   7.1510   7.4639   7.4639
     7.4710   7.4710   8.0333   8.0333   9.1223   9.1223   9.1799   9.1799
     9.3845   9.3845   9.4493   9.4493   9.5477   9.5477   9.7822   9.7822
    12.9985  12.9986  13.3676  13.3677  13.3993  13.3994  14.1498  14.1499
    14.1620  14.1621  14.4109  14.4110  17.0745  17.0746  17.2914  17.2914
    17.3958  17.3958  17.4278  17.4278  17.6525

          k = 0.0000 0.4000 0.3536 ( 18520 PWs)   bands (ev):

   -48.9846 -48.9845 -48.9837 -48.9837 -23.2616 -23.2615 -23.2503 -23.2502
   -23.2492 -23.2490 -23.2466 -23.2465 -23.2364 -23.2363 -23.2255 -23.2254
   -22.0316 -22.0316 -22.0229 -22.0229  -6.5322  -6.5321  -6.2925  -6.2925
    -5.9136  -5.9135  -5.8904  -5.8904  -5.7225  -5.7225  -5.7095  -5.7095
    -4.1385  -4.1385  -4.1176  -4.1176  -3.9720  -3.9720  -3.9587  -3.9587
    -3.7156  -3.7156  -3.7072  -3.7072   6.0558   6.0558   6.1189   6.1190
     6.3906   6.3906   6.4051   6.4052   6.7114   6.7114   6.7660   6.7660
     6.8788   6.8788   6.9880   6.9881   7.0890   7.0890   7.3139   7.3139
     7.3497   7.3497   7.7796   7.7796   9.1375   9.1375   9.1968   9.1968
     9.4288   9.4288   9.4451   9.4451   9.5414   9.5414   9.7172   9.7173
    13.2470  13.2470  13.4768  13.4769  13.5050  13.5051  14.0107  14.0108
    14.0306  14.0307  14.2021  14.2022  17.3862  17.3863  17.4349  17.4349
    17.4745  17.4745  17.6062  17.6062  17.7352

          k = 0.0000 0.4500 0.3536 ( 18544 PWs)   bands (ev):

   -48.9845 -48.9843 -48.9839 -48.9839 -23.2565 -23.2564 -23.2495 -23.2495
   -23.2475 -23.2474 -23.2433 -23.2432 -23.2417 -23.2416 -23.2313 -23.2312
   -22.0293 -22.0293 -22.0249 -22.0249  -6.4718  -6.4718  -6.3516  -6.3516
    -5.8894  -5.8894  -5.8848  -5.8848  -5.7456  -5.7456  -5.7404  -5.7404
    -4.1270  -4.1270  -4.1212  -4.1212  -3.9727  -3.9727  -3.9627  -3.9627
    -3.7026  -3.7026  -3.6945  -3.6945   6.1528   6.1528   6.3298   6.3298
     6.3348   6.3349   6.4811   6.4811   6.6352   6.6353   6.7711   6.7712
     6.9011   6.9011   6.9747   6.9747   7.1251   7.1251   7.1861   7.1861
     7.2692   7.2692   7.5396   7.5396   9.1639   9.1639   9.2049   9.2049
     9.4199   9.4199   9.4449   9.4449   9.5721   9.5721   9.6638   9.6638
    13.4898  13.4898  13.5993  13.5994  13.6240  13.6241  13.8696  13.8697
    13.8950  13.8951  13.9835  13.9836  17.4389  17.4389  17.5208  17.5208
    17.7030  17.7031  17.8297  17.8314  17.8678

          k = 0.0000 0.5000 0.3536 ( 18528 PWs)   bands (ev):

   -48.9844 -48.9841 -48.9841 -48.9840 -23.2532 -23.2530 -23.2500 -23.2498
   -23.2478 -23.2476 -23.2446 -23.2444 -23.2375 -23.2372 -23.2372 -23.2372
   -22.0270 -22.0270 -22.0270 -22.0270  -6.4138  -6.4138  -6.4090  -6.4090
    -5.8813  -5.8813  -5.8790  -5.8790  -5.7556  -5.7556  -5.7528  -5.7528
    -4.1227  -4.1227  -4.1224  -4.1224  -3.9730  -3.9730  -3.9645  -3.9645
    -3.6980  -3.6980  -3.6901  -3.6901   6.2438   6.2438   6.2461   6.2461
     6.5374   6.5374   6.5391   6.5392   6.5760   6.5761   6.5767   6.5767
     7.0170   7.0171   7.0368   7.0369   7.0821   7.0821   7.1050   7.1050
     7.3407   7.3407   7.3498   7.3498   9.1781   9.1781   9.2071   9.2071
     9.4066   9.4066   9.4453   9.4453   9.6165   9.6165   9.6171   9.6171
    13.6852  13.6853  13.6981  13.6982  13.7321  13.7322  13.7591  13.7592
    13.7811  13.7812  13.8015  13.8016  17.4550  17.4550  17.5356  17.5357
    17.8160  17.8160  17.8839  17.8843  17.9702

          k = 0.0500 0.5000 0.3536 ( 18544 PWs)   bands (ev):

   -48.9844 -48.9841 -48.9841 -48.9840 -23.2549 -23.2548 -23.2530 -23.2529
   -23.2478 -23.2476 -23.2461 -23.2460 -23.2343 -23.2341 -23.2340 -23.2339
   -22.0270 -22.0270 -22.0270 -22.0270  -6.4220  -6.4220  -6.4194  -6.4194
    -5.8836  -5.8836  -5.8664  -5.8664  -5.7619  -5.7618  -5.7425  -5.7425
    -4.1385  -4.1385  -4.0984  -4.0984  -4.0019  -4.0019  -3.9311  -3.9311
    -3.6988  -3.6988  -3.6899  -3.6899   6.2095   6.2095   6.2114   6.2114
     6.4242   6.4242   6.4501   6.4502   6.6538   6.6538   6.7092   6.7092
     6.9532   6.9532   7.0550   7.0550   7.0708   7.0708   7.0972   7.0972
     7.4199   7.4199   7.4255   7.4255   9.1414   9.1414   9.2234   9.2234
     9.3841   9.3841   9.4288   9.4288   9.6095   9.6095   9.6212   9.6212
    13.6080  13.6080  13.6448  13.6448  13.7686  13.7687  13.7863  13.7863
    13.8220  13.8220  13.8682  13.8682  17.4553  17.4553  17.5542  17.5542
    17.8168  17.8168  17.8658  17.8765  17.8768

          k = 0.1000 0.5000 0.3536 ( 18516 PWs)   bands (ev):

   -48.9844 -48.9841 -48.9841 -48.9840 -23.2596 -23.2595 -23.2588 -23.2587
   -23.2477 -23.2475 -23.2472 -23.2471 -23.2286 -23.2285 -23.2283 -23.2283
   -22.0269 -22.0269 -22.0269 -22.0269  -6.4476  -6.4476  -6.4448  -6.4448
    -5.8855  -5.8855  -5.8369  -5.8368  -5.7703  -5.7703  -5.7234  -5.7234
    -4.1453  -4.1453  -4.0680  -4.0680  -4.0285  -4.0285  -3.8918  -3.8918
    -3.7010  -3.7010  -3.6894  -3.6894   6.0967   6.0967   6.0987   6.0987
     6.3510   6.3510   6.3801   6.3801   6.7343   6.7343   6.7980   6.7980
     6.8906   6.8906   6.9909   6.9909   7.1125   7.1125   7.1406   7.1406
     7.5794   7.5794   7.5933   7.5933   9.0806   9.0806   9.2214   9.2214
     9.3258   9.3258   9.3768   9.3768   9.5936   9.5936   9.6305   9.6305
    13.5186  13.5186  13.5612  13.5612  13.8110  13.8111  13.8248  13.8249
    13.9317  13.9317  13.9657  13.9657  17.4358  17.4358  17.5775  17.5775
    17.7156  17.7156  17.7401  17.7401  17.8558

          k = 0.1500 0.5000 0.3536 ( 18532 PWs)   bands (ev):

   -48.9844 -48.9841 -48.9841 -48.9840 -23.2652 -23.2651 -23.2649 -23.2648
   -23.2477 -23.2474 -23.2474 -23.2473 -23.2227 -23.2226 -23.2224 -23.2224
   -22.0267 -22.0267 -22.0267 -22.0267  -6.4865  -6.4865  -6.4780  -6.4780
    -5.8876  -5.8876  -5.7965  -5.7965  -5.7816  -5.7816  -5.6981  -5.6981
    -4.1428  -4.1428  -4.0478  -4.0478  -4.0338  -4.0338  -3.8541  -3.8541
    -3.7032  -3.7032  -3.6880  -3.6880   5.9380   5.9380   5.9439   5.9440
     6.3037   6.3037   6.3462   6.3462   6.7367   6.7367   6.7979   6.7979
     6.9060   6.9060   6.9937   6.9937   7.1680   7.1680   7.2082   7.2082
     7.7605   7.7605   7.8015   7.8015   9.0113   9.0113   9.1851   9.1851
     9.2378   9.2378   9.2988   9.2988   9.5794   9.5794   9.6389   9.6389
    13.4373  13.4374  13.4791  13.4791  13.8738  13.8739  13.8848  13.8849
    14.0449  14.0449  14.0678  14.0678  17.3254  17.3254  17.4104  17.4104
    17.6816  17.6816  17.7345  17.7345  17.8884

          k = 0.2000 0.5000 0.3536 ( 18496 PWs)   bands (ev):

   -48.9844 -48.9841 -48.9841 -48.9840 -23.2709 -23.2708 -23.2707 -23.2707
   -23.2476 -23.2474 -23.2474 -23.2473 -23.2171 -23.2170 -23.2169 -23.2169
   -22.0264 -22.0264 -22.0264 -22.0264  -6.5292  -6.5292  -6.5168  -6.5168
    -5.8900  -5.8900  -5.7956  -5.7956  -5.7519  -5.7519  -5.6701  -5.6701
    -4.1319  -4.1319  -4.0592  -4.0592  -3.9990  -3.9990  -3.8233  -3.8233
    -3.7023  -3.7023  -3.6849  -3.6849   5.7755   5.7755   5.7832   5.7832
     6.2584   6.2584   6.3153   6.3153   6.7027   6.7027   6.7511   6.7511
     6.9698   6.9698   7.0443   7.0443   7.2327   7.2327   7.2844   7.2844
     7.9484   7.9484   8.0196   8.0196   8.9379   8.9379   9.1192   9.1192
     9.1196   9.1196   9.2132   9.2132   9.5731   9.5731   9.6431   9.6431
    13.3653  13.3653  13.4030  13.4030  13.9487  13.9488  13.9574  13.9575
    14.1563  14.1563  14.1691  14.1691  17.1340  17.1340  17.1787  17.1787
    17.7126  17.7126  17.8191  17.8191  17.9335

          k = 0.2500 0.5000 0.3536 ( 18516 PWs)   bands (ev):

   -48.9844 -48.9841 -48.9841 -48.9840 -23.2761 -23.2760 -23.2759 -23.2759
   -23.2475 -23.2473 -23.2472 -23.2471 -23.2121 -23.2120 -23.2119 -23.2119
   -22.0261 -22.0261 -22.0261 -22.0261  -6.5709  -6.5709  -6.5566  -6.5566
    -5.8921  -5.8921  -5.8111  -5.8111  -5.7083  -5.7083  -5.6430  -5.6430
    -4.1142  -4.1142  -4.0631  -4.0631  -3.9669  -3.9669  -3.8063  -3.8063
    -3.6936  -3.6936  -3.6794  -3.6794   5.6256   5.6256   5.6333   5.6333
     6.2115   6.2115   6.2771   6.2771   6.6752   6.6752   6.7087   6.7087
     7.0433   7.0434   7.1076   7.1076   7.2990   7.2990   7.3550   7.3550
     8.1257   8.1257   8.2329   8.2329   8.8613   8.8613   8.9779   8.9779
     9.0441   9.0441   9.1285   9.1285   9.5734   9.5734   9.6425   9.6425
    13.3031  13.3031  13.3347  13.3347  14.0268  14.0269  14.0339  14.0340
    14.2608  14.2608  14.2655  14.2655  16.9287  16.9287  16.9540  16.9540
    17.7814  17.7814  17.8905  17.8905  17.9855

          k = 0.3000 0.5000 0.3536 ( 18500 PWs)   bands (ev):

   -48.9844 -48.9841 -48.9841 -48.9840 -23.2806 -23.2806 -23.2805 -23.2805
   -23.2474 -23.2471 -23.2471 -23.2470 -23.2078 -23.2077 -23.2076 -23.2076
   -22.0259 -22.0259 -22.0258 -22.0258  -6.6080  -6.6080  -6.5940  -6.5940
    -5.8933  -5.8933  -5.8273  -5.8273  -5.6691  -5.6691  -5.6192  -5.6192
    -4.0922  -4.0922  -4.0604  -4.0604  -3.9402  -3.9402  -3.8057  -3.8057
    -3.6765  -3.6765  -3.6707  -3.6707   5.4960   5.4960   5.5027   5.5027
     6.1669   6.1669   6.2321   6.2321   6.6577   6.6577   6.6795   6.6795
     7.1213   7.1213   7.1782   7.1782   7.3613   7.3614   7.4131   7.4131
     8.2731   8.2731   8.4291   8.4291   8.7839   8.7839   8.8271   8.8271
     8.9832   8.9832   9.0480   9.0480   9.5769   9.5769   9.6377   9.6377
    13.2512  13.2512  13.2761  13.2761  14.1001  14.1002  14.1062  14.1062
    14.3526  14.3527  14.3535  14.3535  16.7378  16.7379  16.7515  16.7516
    17.8657  17.8657  17.9422  17.9422  18.0410

          k = 0.3500 0.5000 0.3536 ( 18524 PWs)   bands (ev):

   -48.9844 -48.9841 -48.9841 -48.9840 -23.2843 -23.2842 -23.2841 -23.2841
   -23.2472 -23.2470 -23.2470 -23.2469 -23.2043 -23.2043 -23.2042 -23.2042
   -22.0256 -22.0256 -22.0256 -22.0256  -6.6382  -6.6382  -6.6262  -6.6262
    -5.8931  -5.8931  -5.8430  -5.8430  -5.6362  -5.6362  -5.6005  -5.6005
    -4.0690  -4.0690  -4.0529  -4.0529  -3.9199  -3.9199  -3.8165  -3.8165
    -3.6593  -3.6593  -3.6572  -3.6572   5.3912   5.3912   5.3964   5.3964
     6.1295   6.1295   6.1858   6.1858   6.6475   6.6475   6.6613   6.6613
     7.2004   7.2004   7.2513   7.2513   7.4160   7.4160   7.4561   7.4561
     8.3653   8.3653   8.5932   8.5932   8.6833   8.6833   8.7244   8.7244
     8.9506   8.9506   8.9752   8.9752   9.5817   9.5817   9.6299   9.6299
    13.2105  13.2105  13.2285  13.2285  14.1623  14.1624  14.1675  14.1676
    14.4263  14.4263  14.4299  14.4299  16.5757  16.5757  16.5821  16.5821
    17.9501  17.9501  17.9819  17.9819  18.0998

          k = 0.4000 0.5000 0.3536 ( 18540 PWs)   bands (ev):

   -48.9844 -48.9841 -48.9841 -48.9840 -23.2870 -23.2869 -23.2868 -23.2868
   -23.2471 -23.2469 -23.2469 -23.2468 -23.2018 -23.2018 -23.2017 -23.2017
   -22.0254 -22.0254 -22.0254 -22.0254  -6.6600  -6.6600  -6.6513  -6.6513
    -5.8910  -5.8910  -5.8573  -5.8573  -5.6109  -5.6109  -5.5879  -5.5879
    -4.0485  -4.0485  -4.0433  -4.0433  -3.9043  -3.9043  -3.8335  -3.8335
    -3.6471  -3.6471  -3.6417  -3.6417   5.3145   5.3145   5.3181   5.3181
     6.1035   6.1035   6.1444   6.1444   6.6423   6.6423   6.6505   6.6505
     7.2743   7.2743   7.3169   7.3169   7.4605   7.4605   7.4848   7.4848
     8.3850   8.3850   8.5392   8.5392   8.7119   8.7119   8.7328   8.7328
     8.9163   8.9163   8.9423   8.9423   9.5872   9.5872   9.6203   9.6203
    13.1815  13.1815  13.1930  13.1930  14.2093  14.2094  14.2133  14.2134
    14.4825  14.4825  14.4863  14.4863  16.4523  16.4523  16.4545  16.4545
    18.0142  18.0142  18.0148  18.0148  18.1683

          k = 0.4500 0.5000 0.3536 ( 18540 PWs)   bands (ev):

   -48.9844 -48.9841 -48.9841 -48.9840 -23.2886 -23.2886 -23.2885 -23.2885
   -23.2470 -23.2468 -23.2468 -23.2467 -23.2003 -23.2003 -23.2002 -23.2002
   -22.0253 -22.0253 -22.0253 -22.0253  -6.6724  -6.6724  -6.6678  -6.6678
    -5.8865  -5.8865  -5.8696  -5.8696  -5.5934  -5.5934  -5.5823  -5.5823
    -4.0350  -4.0350  -4.0346  -4.0346  -3.8895  -3.8895  -3.8531  -3.8531
    -3.6369  -3.6369  -3.6329  -3.6329   5.2680   5.2680   5.2698   5.2698
     6.0915   6.0915   6.1129   6.1129   6.6404   6.6404   6.6442   6.6443
     7.3329   7.3329   7.3592   7.3592   7.4917   7.4917   7.5014   7.5014
     8.3706   8.3706   8.4372   8.4372   8.7360   8.7360   8.7909   8.7909
     8.8966   8.8966   8.9403   8.9403   9.5935   9.5935   9.6104   9.6104
    13.1649  13.1649  13.1705  13.1705  14.2387  14.2388  14.2409  14.2410
    14.5181  14.5181  14.5204  14.5205  16.3750  16.3750  16.3754  16.3755
    18.0385  18.0385  18.0466  18.0466  18.2469

          k = 0.5000 0.5000 0.3536 ( 18616 PWs)   bands (ev):

   -48.9844 -48.9841 -48.9841 -48.9840 -23.2892 -23.2892 -23.2891 -23.2891
   -23.2470 -23.2468 -23.2467 -23.2467 -23.1998 -23.1998 -23.1997 -23.1997
   -22.0252 -22.0252 -22.0252 -22.0252  -6.6750  -6.6750  -6.6750  -6.6750
    -5.8794  -5.8794  -5.8794  -5.8794  -5.5840  -5.5840  -5.5839  -5.5839
    -4.0307  -4.0307  -4.0307  -4.0307  -3.8725  -3.8725  -3.8724  -3.8724
    -3.6315  -3.6315  -3.6315  -3.6315   5.2529   5.2529   5.2530   5.2530
     6.0947   6.0947   6.0947   6.0947   6.6410   6.6410   6.6411   6.6411
     7.3644   7.3644   7.3644   7.3644   7.5054   7.5054   7.5054   7.5054
     8.3796   8.3796   8.3796   8.3796   8.7704   8.7704   8.7704   8.7704
     8.9243   8.9243   8.9243   8.9243   9.6013   9.6013   9.6013   9.6013
    13.1611  13.1611  13.1611  13.1611  14.2493  14.2494  14.2495  14.2495
    14.5310  14.5310  14.5311  14.5311  16.3487  16.3487  16.3487  16.3488
    18.0514  18.0514  18.0514  18.0514  18.3158

          k = 0.4500 0.4500 0.3536 ( 18510 PWs)   bands (ev):

   -48.9844 -48.9841 -48.9840 -48.9840 -23.2890 -23.2889 -23.2871 -23.2870
   -23.2471 -23.2469 -23.2467 -23.2466 -23.2017 -23.2016 -23.1998 -23.1997
   -22.0257 -22.0257 -22.0250 -22.0250  -6.6724  -6.6724  -6.6576  -6.6576
    -5.8868  -5.8868  -5.8667  -5.8667  -5.6016  -5.6016  -5.5826  -5.5825
    -4.0460  -4.0460  -4.0320  -4.0320  -3.8871  -3.8871  -3.8505  -3.8505
    -3.6414  -3.6414  -3.6370  -3.6370   5.2529   5.2530   5.3165   5.3165
     6.0961   6.0962   6.1240   6.1240   6.6406   6.6406   6.6468   6.6468
     7.2855   7.2855   7.3641   7.3641   7.4761   7.4761   7.5141   7.5141
     8.3688   8.3688   8.4841   8.4841   8.6901   8.6901   8.7932   8.7932
     8.9000   8.9000   8.9504   8.9504   9.5932   9.5932   9.6105   9.6105
    13.1578  13.1579  13.1915  13.1915  14.2060  14.2061  14.2485  14.2486
    14.4996  14.4997  14.5229  14.5230  16.3444  16.3445  16.4557  16.4558
    18.0009  18.0009  18.0710  18.0710  18.2315

          k = 0.4000 0.4000 0.3536 ( 18500 PWs)   bands (ev):

   -48.9844 -48.9842 -48.9840 -48.9839 -23.2884 -23.2883 -23.2813 -23.2812
   -23.2476 -23.2475 -23.2465 -23.2464 -23.2075 -23.2074 -23.2001 -23.2000
   -22.0269 -22.0269 -22.0242 -22.0242  -6.6650  -6.6650  -6.6080  -6.6079
    -5.8958  -5.8958  -5.8421  -5.8421  -5.6468  -5.6468  -5.5833  -5.5833
    -4.0822  -4.0822  -4.0356  -4.0356  -3.8972  -3.8972  -3.8269  -3.8269
    -3.6655  -3.6655  -3.6575  -3.6575   5.2529   5.2530   5.5003   5.5003
     6.1127   6.1127   6.1947   6.1948   6.6409   6.6409   6.6647   6.6647
     7.1023   7.1024   7.3150   7.3150   7.4372   7.4372   7.5634   7.5634
     8.3379   8.3380   8.4620   8.4620   8.6771   8.6771   8.8398   8.8399
     8.9197   8.9197   9.0105   9.0106   9.5844   9.5844   9.6195   9.6195
    13.1487  13.1487  13.2813  13.2814  14.0647  14.0648  14.2143  14.2144
    14.4405  14.4405  14.5162  14.5163  16.3308  16.3309  16.7518  16.7519
    17.8755  17.8755  18.0872  18.0872  18.1509

          k = 0.3500 0.3500 0.3536 ( 18512 PWs)   bands (ev):

   -48.9845 -48.9843 -48.9839 -48.9838 -23.2874 -23.2873 -23.2721 -23.2720
   -23.2485 -23.2483 -23.2460 -23.2459 -23.2164 -23.2163 -23.2004 -23.2003
   -22.0289 -22.0289 -22.0231 -22.0231  -6.6577  -6.6577  -6.5298  -6.5298
    -5.9071  -5.9071  -5.8059  -5.8059  -5.7116  -5.7116  -5.5843  -5.5843
    -4.1241  -4.1241  -4.0411  -4.0411  -3.9059  -3.9059  -3.8097  -3.8097
    -3.7011  -3.7011  -3.6907  -3.6907   5.2529   5.2530   5.7834   5.7835
     6.1332   6.1332   6.3007   6.3007   6.6410   6.6411   6.7069   6.7069
     6.9001   6.9001   7.1680   7.1680   7.4503   7.4503   7.6487   7.6487
     8.0268   8.0268   8.4023   8.4023   8.7721   8.7721   8.9485   8.9486
     9.0326   9.0326   9.1106   9.1107   9.5727   9.5727   9.6256   9.6256
    13.1333  13.1334  13.4239  13.4240  13.8311  13.8312  14.0700  14.0701
    14.4485  14.4486  14.5263  14.5264  16.3054  16.3055  17.1620  17.1621
    17.7181  17.7181  17.9399  17.9399  18.1809

          k = 0.3000 0.3000 0.3536 ( 18536 PWs)   bands (ev):

   -48.9847 -48.9845 -48.9837 -48.9836 -23.2863 -23.2862 -23.2609 -23.2608
   -23.2493 -23.2492 -23.2454 -23.2453 -23.2275 -23.2274 -23.2008 -23.2007
   -22.0313 -22.0313 -22.0216 -22.0216  -6.6574  -6.6574  -6.4298  -6.4298
    -5.9185  -5.9185  -5.8005  -5.8005  -5.7440  -5.7440  -5.5853  -5.5853
    -4.1621  -4.1621  -4.0477  -4.0477  -3.9149  -3.9149  -3.8045  -3.8045
    -3.7439  -3.7439  -3.7314  -3.7314   5.2529   5.2530   6.1239   6.1240
     6.1448   6.1448   6.4153   6.4153   6.6393   6.6393   6.7282   6.7283
     6.8091   6.8091   6.9442   6.9442   7.4701   7.4701   7.6464   7.6464
     7.7657   7.7657   8.4214   8.4214   8.8066   8.8066   8.9932   8.9932
     9.2129   9.2129   9.2787   9.2787   9.5531   9.5531   9.6340   9.6340
    13.1077  13.1078  13.4776  13.4776  13.6678  13.6679  13.8504  13.8504
    14.5197  14.5197  14.5526  14.5526  16.2645  16.2645  17.4433  17.4433
    17.6655  17.6655  17.7611  17.7611  18.0926

          k = 0.2500 0.2500 0.3536 ( 18550 PWs)   bands (ev):

   -48.9849 -48.9847 -48.9835 -48.9834 -23.2851 -23.2849 -23.2527 -23.2526
   -23.2470 -23.2469 -23.2437 -23.2436 -23.2397 -23.2396 -23.2012 -23.2011
   -22.0341 -22.0341 -22.0200 -22.0200  -6.6711  -6.6711  -6.3164  -6.3164
    -5.9309  -5.9309  -5.8615  -5.8615  -5.6956  -5.6956  -5.5857  -5.5857
    -4.1901  -4.1901  -4.0543  -4.0543  -3.9273  -3.9273  -3.8176  -3.8176
    -3.7896  -3.7896  -3.7667  -3.7667   5.2526   5.2526   6.1145   6.1145
     6.4296   6.4296   6.5396   6.5396   6.5819   6.5819   6.6249   6.6249
     6.6821   6.6821   7.0192   7.0192   7.3020   7.3020   7.5545   7.5545
     7.8923   7.8923   8.4620   8.4621   8.8373   8.8373   9.0536   9.0537
     9.3209   9.3209   9.4253   9.4253   9.5308   9.5309   9.6877   9.6877
    13.0204  13.0204  13.2122  13.2122  13.6180  13.6181  13.8718  13.8718
    14.5717  14.5718  14.6446  14.6447  16.2013  16.2014  17.2961  17.2961
    17.4785  17.4785  17.8400  17.8400  17.9886

          k = 0.2000 0.2000 0.3536 ( 18542 PWs)   bands (ev):

   -48.9851 -48.9849 -48.9833 -48.9832 -23.2839 -23.2838 -23.2535 -23.2533
   -23.2514 -23.2513 -23.2448 -23.2447 -23.2333 -23.2332 -23.2015 -23.2014
   -22.0369 -22.0369 -22.0184 -22.0184  -6.7015  -6.7014  -6.1995  -6.1995
    -5.9601  -5.9601  -5.8895  -5.8895  -5.6446  -5.6446  -5.5850  -5.5849
    -4.2053  -4.2053  -4.0597  -4.0597  -3.9480  -3.9480  -3.8543  -3.8543
    -3.8283  -3.8283  -3.7862  -3.7862   5.2511   5.2512   6.0471   6.0471
     6.2155   6.2155   6.4913   6.4913   6.5966   6.5966   6.6444   6.6444
     6.8487   6.8487   7.1139   7.1139   7.3289   7.3289   7.5927   7.5927
     8.0249   8.0249   8.5152   8.5152   8.8889   8.8889   9.1358   9.1358
     9.3630   9.3630   9.4206   9.4206   9.5468   9.5468   9.8279   9.8279
    12.7167  12.7168  13.1254  13.1255  13.4111  13.4112  14.1092  14.1092
    14.6022  14.6023  14.7880  14.7881  16.1037  16.1038  17.1121  17.1121
    17.2254  17.2254  17.5596  17.5596  17.7757

          k = 0.1500 0.1500 0.3536 ( 18532 PWs)   bands (ev):

   -48.9852 -48.9851 -48.9831 -48.9830 -23.2831 -23.2830 -23.2628 -23.2626
   -23.2538 -23.2537 -23.2442 -23.2441 -23.2220 -23.2219 -23.2016 -23.2015
   -22.0394 -22.0394 -22.0170 -22.0170  -6.7431  -6.7430  -6.0923  -6.0923
    -5.9955  -5.9955  -5.8843  -5.8843  -5.6047  -5.6047  -5.5818  -5.5818
    -4.2078  -4.2078  -4.0632  -4.0632  -3.9779  -3.9779  -3.8966  -3.8966
    -3.8578  -3.8578  -3.7963  -3.7963   5.2463   5.2464   5.8469   5.8470
     5.9661   5.9662   6.5068   6.5069   6.6002   6.6002   6.6479   6.6479
     6.9870   6.9870   7.1462   7.1462   7.6305   7.6305   7.6545   7.6545
     8.1458   8.1458   8.5519   8.5519   8.9948   8.9948   9.2274   9.2274
     9.2409   9.2409   9.4916   9.4916   9.5576   9.5576   9.9717   9.9717
    12.3658  12.3659  13.0991  13.0992  13.2527  13.2528  14.3326  14.3327
    14.6290  14.6291  14.9457  14.9458  15.9557  15.9558  16.9271  16.9271
    17.0112  17.0112  17.2172  17.2172  17.6327

          k = 0.1000 0.1000 0.3536 ( 18540 PWs)   bands (ev):

   -48.9854 -48.9852 -48.9830 -48.9829 -23.2831 -23.2830 -23.2705 -23.2704
   -23.2547 -23.2546 -23.2437 -23.2436 -23.2135 -23.2134 -23.2011 -23.2010
   -22.0414 -22.0414 -22.0158 -22.0158  -6.7847  -6.7847  -6.0488  -6.0488
    -5.9744  -5.9744  -5.8694  -5.8694  -5.5863  -5.5863  -5.5726  -5.5726
    -4.2008  -4.2008  -4.0655  -4.0655  -4.0091  -4.0091  -3.9306  -3.9306
    -3.8820  -3.8820  -3.8009  -3.8009   5.2316   5.2316   5.5628   5.5628
     5.8954   5.8955   6.5156   6.5157   6.6036   6.6036   6.6554   6.6554
     6.9127   6.9127   7.4118   7.4119   7.6636   7.6636   7.9263   7.9263
     8.2405   8.2405   8.5504   8.5504   8.9706   8.9706   9.2397   9.2397
     9.3607   9.3607   9.5380   9.5380   9.5673   9.5673  10.0789  10.0789
    12.0562  12.0562  13.0796  13.0797  13.1528  13.1528  14.5045  14.5046
    14.6550  14.6551  15.0927  15.0928  15.7637  15.7638  16.7400  16.7400
    16.8740  16.8740  16.9780  16.9781  17.5301

          k = 0.0500 0.0500 0.3536 ( 18524 PWs)   bands (ev):

   -48.9855 -48.9853 -48.9829 -48.9828 -23.2842 -23.2841 -23.2745 -23.2744
   -23.2553 -23.2552 -23.2434 -23.2433 -23.2090 -23.2089 -23.1997 -23.1996
   -22.0428 -22.0428 -22.0151 -22.0151  -6.8149  -6.8149  -6.0607  -6.0607
    -5.9175  -5.9175  -5.8523  -5.8523  -5.5839  -5.5838  -5.5641  -5.5641
    -4.1908  -4.1908  -4.0688  -4.0688  -4.0297  -4.0297  -3.9533  -3.9533
    -3.8989  -3.8989  -3.8022  -3.8022   5.1954   5.1954   5.4070   5.4070
     5.8499   5.8499   6.5185   6.5185   6.6040   6.6040   6.6639   6.6639
     6.8722   6.8722   7.6140   7.6140   7.6841   7.6841   8.1551   8.1551
     8.3000   8.3000   8.5201   8.5201   8.7558   8.7558   9.4154   9.4154
     9.4722   9.4723   9.5488   9.5488   9.5777   9.5777  10.1432  10.1432
    11.8370  11.8371  13.0590  13.0591  13.1097  13.1098  14.5818  14.5818
    14.6943  14.6944  15.1991  15.1991  15.5953  15.5954  16.6069  16.6069
    16.7977  16.7977  16.8583  16.8583  17.4470

          k = 0.0000 0.0000 0.3536 ( 18458 PWs)   bands (ev):

   -48.9855 -48.9854 -48.9829 -48.9828 -23.2849 -23.2848 -23.2755 -23.2754
   -23.2555 -23.2554 -23.2433 -23.2432 -23.2079 -23.2078 -23.1988 -23.1987
   -22.0432 -22.0432 -22.0148 -22.0148  -6.8259  -6.8259  -6.0660  -6.0660
    -5.8982  -5.8982  -5.8420  -5.8420  -5.5846  -5.5846  -5.5618  -5.5618
    -4.1861  -4.1861  -4.0714  -4.0714  -4.0356  -4.0356  -3.9617  -3.9617
    -3.9049  -3.9049  -3.8024  -3.8024   5.1683   5.1683   5.3680   5.3680
     5.8343   5.8343   6.5187   6.5187   6.6040   6.6040   6.6674   6.6675
     6.8595   6.8596   7.6895   7.6895   7.6926   7.6926   8.3093   8.3093
     8.3300   8.3300   8.4571   8.4571   8.6316   8.6317   9.4997   9.4998
     9.5337   9.5337   9.5375   9.5375   9.5707   9.5707  10.1646  10.1646
    11.7563  11.7564  13.0489  13.0490  13.1004  13.1005  14.5931  14.5932
    14.7174  14.7175  15.2382  15.2383  15.5307  15.5308  16.5610  16.5610
    16.7725  16.7725  16.8233  16.8234  17.4114

     Writing all to output data dir ./out/smo.save/ :
     XML data file, pseudopotentials, collected wavefunctions

     init_run     :      2.06s CPU      2.52s WALL (       1 calls)
     electrons    :    101.67s CPU    115.99s WALL (       1 calls)

     Called by init_run:
     wfcinit      :      0.00s CPU      0.09s WALL (       1 calls)
     wfcinit:atom :      0.02s CPU      0.03s WALL (       1 calls)
     wfcinit:wfcr :      1.76s CPU      1.77s WALL (       1 calls)
     potinit      :      0.34s CPU      0.50s WALL (       1 calls)
     hinit0       :      1.48s CPU      1.54s WALL (       1 calls)

     Called by electrons:
     c_bands      :    101.66s CPU    113.40s WALL (       1 calls)
     v_of_rho     :      0.18s CPU      0.22s WALL (       1 calls)
     v_h          :      0.07s CPU      0.10s WALL (       1 calls)
     v_xc         :      0.11s CPU      0.12s WALL (       1 calls)
     newd         :      0.07s CPU      0.08s WALL (       1 calls)
     PAW_pot      :      0.02s CPU      0.04s WALL (       1 calls)

     Called by c_bands:
     init_us_2    :      0.05s CPU      0.08s WALL (       1 calls)
     cegterg      :     97.09s CPU     97.38s WALL (       6 calls)

     Called by sum_band:

     Called by *egterg:
     cdiaghg      :      1.78s CPU      1.78s WALL (     121 calls)
     cegterg:over :      9.38s CPU      9.40s WALL (     120 calls)
     cegterg:upda :      5.78s CPU      5.79s WALL (     120 calls)
     cegterg:last :     13.63s CPU     13.65s WALL (      45 calls)
     h_psi        :     59.91s CPU     60.05s WALL (     127 calls)
     s_psi        :      6.87s CPU      6.88s WALL (     127 calls)
     g_psi        :      0.23s CPU      0.23s WALL (     120 calls)

     Called by h_psi:
     h_psi:calbec :      6.29s CPU      6.30s WALL (     127 calls)
     vloc_psi     :     46.63s CPU     46.71s WALL (     127 calls)
                                        0.00s GPU  (     127 calls)
     add_vuspsi   :      6.76s CPU      6.76s WALL (     127 calls)

     General routines
     calbec       :      6.29s CPU      6.30s WALL (     127 calls)
     fft          :      0.17s CPU      0.17s WALL (       6 calls)
     ffts         :      0.01s CPU      0.01s WALL (       1 calls)
     fftw         :     42.17s CPU     42.25s WALL (    9658 calls)
     interpolate  :      0.05s CPU      0.07s WALL (       1 calls)
     davcio       :      0.00s CPU      2.63s WALL (       2 calls)

     Parallel routines

     PAW routines
     PAW_pot      :      0.02s CPU      0.04s WALL (       1 calls)

     PWSCF        :   1m44.16s CPU   2m 2.92s WALL


   This run was terminated on:  20:38:14  29Nov2025            

=------------------------------------------------------------------------------=
   JOB DONE.
=------------------------------------------------------------------------------=
