
     Program PWSCF v.7.5 starts on 29Nov2025 at 20:38:26 
        Git branch: develop
        Last git commit: 70e07caa2a5fab3dd9374bc01196f67e923fc5ea
        Last git commit date: Mon Aug 18 10:06:47 2025 +0000
        Last git commit subject: Merge branch 'stressed-by-optional-variables' into

     This program is part of the open-source Quantum ESPRESSO suite
     for quantum simulation of materials; please cite
         "P. Giannozzi et al., J. Phys.:Condens. Matter 21 395502 (2009);
         "P. Giannozzi et al., J. Phys.:Condens. Matter 29 465901 (2017);
         "P. Giannozzi et al., J. Chem. Phys. 152 154105 (2020);
          URL http://www.quantum-espresso.org", 
     in publications or presentations arising from this work. More details at
     http://www.quantum-espresso.org/quote

     Parallel version (MPI), running on   128 processors

     MPI processes distributed on     1 nodes
     957186 MiB available memory on the printing compute node when the environment starts

     Waiting for input...
     Reading input from standard input

     Current dimensions of program PWSCF are:
     Max number of different atomic species (ntypx) = 10
     Max number of k-points (npk) =  40000
     Max angular momentum in pseudopotentials (lmaxx) =  4
     file Sr.pz-spn-kjpaw_psl.1.0.0.UPF: wavefunction(s)  4P renormalized
     file Mo.pz-spn-kjpaw_psl.1.0.0.UPF: wavefunction(s)  4S 4D renormalized
     file O.pz-n-kjpaw_psl.1.0.0.UPF: wavefunction(s)  2S 2P renormalized

     Atomic positions and unit cell read from directory:
     ./out/smo.save/

     Found identity + (  0.5000 -0.5000 -0.5000) symmetry
     This is a supercell, fractional translations are disabled

     K-points division:     npool     =     128
     Subspace diagonalization in iterative solution of the eigenvalue problem:
     a serial algorithm will be used

     Message from routine divide_et_impera:
     suboptimal parallelization: some nodes have no k-points

     G-vector sticks info
     --------------------
     sticks:   dense  smooth     PW     G-vecs:    dense   smooth      PW
     Sum        3577    1789    553               228191    80831   13637

     Using Slab Decomposition



     bravais-lattice index     =            0
     lattice parameter (alat)  =      10.6088  a.u.
     unit-cell volume          =    1688.5722 (a.u.)^3
     number of atoms/cell      =           20
     number of atomic types    =            3
     number of electrons       =       168.00
     number of Kohn-Sham states=          101
     kinetic-energy cutoff     =      50.0000  Ry
     charge density cutoff     =     400.0000  Ry
     Exchange-correlation= SLA  PZ   NOGX NOGC
                           (   1   1   0   0   0   0   0)

     celldm(1)=  10.608847  celldm(2)=   0.000000  celldm(3)=   0.000000
     celldm(4)=   0.000000  celldm(5)=   0.000000  celldm(6)=   0.000000

     crystal axes: (cart. coord. in units of alat)
               a(1) = (   1.000000   0.000000   0.000000 )  
               a(2) = (   0.000000   1.000000   0.000000 )  
               a(3) = (   0.000000   0.000000   1.414214 )  

     reciprocal axes: (cart. coord. in units 2 pi/alat)
               b(1) = (  1.000000  0.000000  0.000000 )  
               b(2) = (  0.000000  1.000000  0.000000 )  
               b(3) = (  0.000000  0.000000  0.707107 )  


     PseudoPot. # 1 for Sr read from file:
     ../../../pseudo/Sr.pz-spn-kjpaw_psl.1.0.0.UPF
     MD5 check sum: 14b1f655f5497b386c4f305353cf4fd4
     Pseudo is Projector augmented-wave + core cor, Zval = 10.0
     Generated using 'atomic' code by A. Dal Corso  v.7.3
     Shape of augmentation charge: PSQ
     Using radial grid of 1221 points,  6 beta functions with: 
                l(1) =   0
                l(2) =   0
                l(3) =   1
                l(4) =   1
                l(5) =   2
                l(6) =   2
     Q(r) pseudized with 0 coefficients 


     PseudoPot. # 2 for Mo read from file:
     ../../../pseudo/Mo.pz-spn-kjpaw_psl.1.0.0.UPF
     MD5 check sum: 2e12aff744a4785a34e7548d4bec1d21
     Pseudo is Projector augmented-wave + core cor, Zval = 14.0
     Generated using 'atomic' code by A. Dal Corso  v.7.3
     Shape of augmentation charge: PSQ
     Using radial grid of 1229 points,  6 beta functions with: 
                l(1) =   0
                l(2) =   0
                l(3) =   1
                l(4) =   1
                l(5) =   2
                l(6) =   2
     Q(r) pseudized with 0 coefficients 


     PseudoPot. # 3 for O  read from file:
     ../../../pseudo/O.pz-n-kjpaw_psl.1.0.0.UPF
     MD5 check sum: 71a951e35f67dc87891058fc5642ed8f
     Pseudo is Projector augmented-wave + core cor, Zval =  6.0
     Generated using 'atomic' code by A. Dal Corso  v.7.3
     Shape of augmentation charge: PSQ
     Using radial grid of 1095 points,  4 beta functions with: 
                l(1) =   0
                l(2) =   0
                l(3) =   1
                l(4) =   1
     Q(r) pseudized with 0 coefficients 


     atomic species   valence    mass     pseudopotential
     Sr               10.00    87.62000     Sr( 1.00)
     Mo               14.00    95.95000     Mo( 1.00)
     O                 6.00    15.99900     O ( 1.00)

     No symmetry found


                                    s                        frac. trans.

      isym =  1     identity                                     

 cryst.   s( 1) = (     1          0          0      )
                  (     0          1          0      )
                  (     0          0          1      )

 cart.    s( 1) = (  1.0000000  0.0000000  0.0000000 )
                  (  0.0000000  1.0000000  0.0000000 )
                  (  0.0000000  0.0000000  1.0000000 )


   Cartesian axes

     site n.     atom                  positions (alat units)
         1        Sr     tau(   1) = (   0.0000000   0.5000000   0.3535535  )
         2        Sr     tau(   2) = (   0.0000000   0.5000000   1.0606604  )
         3        Sr     tau(   3) = (   0.5000000   0.0000000   1.0606604  )
         4        Sr     tau(   4) = (   0.5000000   0.0000000   0.3535535  )
         5        Mo     tau(   5) = (   0.0000000   0.0000000   0.0000000  )
         6        Mo     tau(   6) = (   0.0000000   0.0000000   0.7071069  )
         7        Mo     tau(   7) = (   0.5000000   0.5000000   0.7071069  )
         8        Mo     tau(   8) = (   0.5000000   0.5000000   0.0000000  )
         9        O      tau(   9) = (   0.2500000   0.7500000   0.0251900  )
        10        O      tau(  10) = (   0.2500000   0.2500000  -0.0251900  )
        11        O      tau(  11) = (   0.7500000   0.2500000   0.7322969  )
        12        O      tau(  12) = (   0.7500000   0.7500000   0.6819169  )
        13        O      tau(  13) = (   0.7500000   0.2500000  -0.0251900  )
        14        O      tau(  14) = (   0.7500000   0.7500000   0.0251900  )
        15        O      tau(  15) = (   0.2500000   0.7500000   0.6819169  )
        16        O      tau(  16) = (   0.2500000   0.2500000   0.7322969  )
        17        O      tau(  17) = (   0.0000000   0.0356240   0.3535535  )
        18        O      tau(  18) = (   0.0000000  -0.0356240   1.0606604  )
        19        O      tau(  19) = (   0.5000000   0.5356240   1.0606604  )
        20        O      tau(  20) = (   0.5000000   0.4643760   0.3535535  )

   Crystallographic axes

     site n.     atom                  positions (cryst. coord.)
         1        Sr     tau(   1) = (  0.0000000  0.5000000  0.2500000  )
         2        Sr     tau(   2) = (  0.0000000  0.5000000  0.7500000  )
         3        Sr     tau(   3) = (  0.5000000  0.0000000  0.7500000  )
         4        Sr     tau(   4) = (  0.5000000  0.0000000  0.2500000  )
         5        Mo     tau(   5) = (  0.0000000  0.0000000  0.0000000  )
         6        Mo     tau(   6) = (  0.0000000  0.0000000  0.5000000  )
         7        Mo     tau(   7) = (  0.5000000  0.5000000  0.5000000  )
         8        Mo     tau(   8) = (  0.5000000  0.5000000  0.0000000  )
         9        O      tau(   9) = (  0.2500000  0.7500000  0.0178120  )
        10        O      tau(  10) = (  0.2500000  0.2500000 -0.0178120  )
        11        O      tau(  11) = (  0.7500000  0.2500000  0.5178120  )
        12        O      tau(  12) = (  0.7500000  0.7500000  0.4821880  )
        13        O      tau(  13) = (  0.7500000  0.2500000 -0.0178120  )
        14        O      tau(  14) = (  0.7500000  0.7500000  0.0178120  )
        15        O      tau(  15) = (  0.2500000  0.7500000  0.4821880  )
        16        O      tau(  16) = (  0.2500000  0.2500000  0.5178120  )
        17        O      tau(  17) = (  0.0000000  0.0356240  0.2500000  )
        18        O      tau(  18) = (  0.0000000 -0.0356240  0.7500000  )
        19        O      tau(  19) = (  0.5000000  0.5356240  0.7500000  )
        20        O      tau(  20) = (  0.5000000  0.4643760  0.2500000  )

     number of k points=   125  Fermi-Dirac smearing, width (Ry)=  0.0015
                       cart. coord. in units 2pi/alat
        k(    1) = (   0.0000000   0.0000000   0.0000000), wk =   0.0160000
        k(    2) = (   0.0000000   0.0000000   0.1414213), wk =   0.0160000
        k(    3) = (   0.0000000   0.0000000   0.2828427), wk =   0.0160000
        k(    4) = (   0.0000000   0.0000000   0.4242640), wk =   0.0160000
        k(    5) = (   0.0000000   0.0000000   0.5656853), wk =   0.0160000
        k(    6) = (   0.0000000   0.2000000   0.0000000), wk =   0.0160000
        k(    7) = (   0.0000000   0.2000000   0.1414213), wk =   0.0160000
        k(    8) = (   0.0000000   0.2000000   0.2828427), wk =   0.0160000
        k(    9) = (   0.0000000   0.2000000   0.4242640), wk =   0.0160000
        k(   10) = (   0.0000000   0.2000000   0.5656853), wk =   0.0160000
        k(   11) = (   0.0000000   0.4000000   0.0000000), wk =   0.0160000
        k(   12) = (   0.0000000   0.4000000   0.1414213), wk =   0.0160000
        k(   13) = (   0.0000000   0.4000000   0.2828427), wk =   0.0160000
        k(   14) = (   0.0000000   0.4000000   0.4242640), wk =   0.0160000
        k(   15) = (   0.0000000   0.4000000   0.5656853), wk =   0.0160000
        k(   16) = (   0.0000000   0.6000000   0.0000000), wk =   0.0160000
        k(   17) = (   0.0000000   0.6000000   0.1414213), wk =   0.0160000
        k(   18) = (   0.0000000   0.6000000   0.2828427), wk =   0.0160000
        k(   19) = (   0.0000000   0.6000000   0.4242640), wk =   0.0160000
        k(   20) = (   0.0000000   0.6000000   0.5656853), wk =   0.0160000
        k(   21) = (   0.0000000   0.8000000   0.0000000), wk =   0.0160000
        k(   22) = (   0.0000000   0.8000000   0.1414213), wk =   0.0160000
        k(   23) = (   0.0000000   0.8000000   0.2828427), wk =   0.0160000
        k(   24) = (   0.0000000   0.8000000   0.4242640), wk =   0.0160000
        k(   25) = (   0.0000000   0.8000000   0.5656853), wk =   0.0160000
        k(   26) = (   0.2000000   0.0000000   0.0000000), wk =   0.0160000
        k(   27) = (   0.2000000   0.0000000   0.1414213), wk =   0.0160000
        k(   28) = (   0.2000000   0.0000000   0.2828427), wk =   0.0160000
        k(   29) = (   0.2000000   0.0000000   0.4242640), wk =   0.0160000
        k(   30) = (   0.2000000   0.0000000   0.5656853), wk =   0.0160000
        k(   31) = (   0.2000000   0.2000000   0.0000000), wk =   0.0160000
        k(   32) = (   0.2000000   0.2000000   0.1414213), wk =   0.0160000
        k(   33) = (   0.2000000   0.2000000   0.2828427), wk =   0.0160000
        k(   34) = (   0.2000000   0.2000000   0.4242640), wk =   0.0160000
        k(   35) = (   0.2000000   0.2000000   0.5656853), wk =   0.0160000
        k(   36) = (   0.2000000   0.4000000   0.0000000), wk =   0.0160000
        k(   37) = (   0.2000000   0.4000000   0.1414213), wk =   0.0160000
        k(   38) = (   0.2000000   0.4000000   0.2828427), wk =   0.0160000
        k(   39) = (   0.2000000   0.4000000   0.4242640), wk =   0.0160000
        k(   40) = (   0.2000000   0.4000000   0.5656853), wk =   0.0160000
        k(   41) = (   0.2000000   0.6000000   0.0000000), wk =   0.0160000
        k(   42) = (   0.2000000   0.6000000   0.1414213), wk =   0.0160000
        k(   43) = (   0.2000000   0.6000000   0.2828427), wk =   0.0160000
        k(   44) = (   0.2000000   0.6000000   0.4242640), wk =   0.0160000
        k(   45) = (   0.2000000   0.6000000   0.5656853), wk =   0.0160000
        k(   46) = (   0.2000000   0.8000000   0.0000000), wk =   0.0160000
        k(   47) = (   0.2000000   0.8000000   0.1414213), wk =   0.0160000
        k(   48) = (   0.2000000   0.8000000   0.2828427), wk =   0.0160000
        k(   49) = (   0.2000000   0.8000000   0.4242640), wk =   0.0160000
        k(   50) = (   0.2000000   0.8000000   0.5656853), wk =   0.0160000
        k(   51) = (   0.4000000   0.0000000   0.0000000), wk =   0.0160000
        k(   52) = (   0.4000000   0.0000000   0.1414213), wk =   0.0160000
        k(   53) = (   0.4000000   0.0000000   0.2828427), wk =   0.0160000
        k(   54) = (   0.4000000   0.0000000   0.4242640), wk =   0.0160000
        k(   55) = (   0.4000000   0.0000000   0.5656853), wk =   0.0160000
        k(   56) = (   0.4000000   0.2000000   0.0000000), wk =   0.0160000
        k(   57) = (   0.4000000   0.2000000   0.1414213), wk =   0.0160000
        k(   58) = (   0.4000000   0.2000000   0.2828427), wk =   0.0160000
        k(   59) = (   0.4000000   0.2000000   0.4242640), wk =   0.0160000
        k(   60) = (   0.4000000   0.2000000   0.5656853), wk =   0.0160000
        k(   61) = (   0.4000000   0.4000000   0.0000000), wk =   0.0160000
        k(   62) = (   0.4000000   0.4000000   0.1414213), wk =   0.0160000
        k(   63) = (   0.4000000   0.4000000   0.2828427), wk =   0.0160000
        k(   64) = (   0.4000000   0.4000000   0.4242640), wk =   0.0160000
        k(   65) = (   0.4000000   0.4000000   0.5656853), wk =   0.0160000
        k(   66) = (   0.4000000   0.6000000   0.0000000), wk =   0.0160000
        k(   67) = (   0.4000000   0.6000000   0.1414213), wk =   0.0160000
        k(   68) = (   0.4000000   0.6000000   0.2828427), wk =   0.0160000
        k(   69) = (   0.4000000   0.6000000   0.4242640), wk =   0.0160000
        k(   70) = (   0.4000000   0.6000000   0.5656853), wk =   0.0160000
        k(   71) = (   0.4000000   0.8000000   0.0000000), wk =   0.0160000
        k(   72) = (   0.4000000   0.8000000   0.1414213), wk =   0.0160000
        k(   73) = (   0.4000000   0.8000000   0.2828427), wk =   0.0160000
        k(   74) = (   0.4000000   0.8000000   0.4242640), wk =   0.0160000
        k(   75) = (   0.4000000   0.8000000   0.5656853), wk =   0.0160000
        k(   76) = (   0.6000000   0.0000000   0.0000000), wk =   0.0160000
        k(   77) = (   0.6000000   0.0000000   0.1414213), wk =   0.0160000
        k(   78) = (   0.6000000   0.0000000   0.2828427), wk =   0.0160000
        k(   79) = (   0.6000000   0.0000000   0.4242640), wk =   0.0160000
        k(   80) = (   0.6000000   0.0000000   0.5656853), wk =   0.0160000
        k(   81) = (   0.6000000   0.2000000   0.0000000), wk =   0.0160000
        k(   82) = (   0.6000000   0.2000000   0.1414213), wk =   0.0160000
        k(   83) = (   0.6000000   0.2000000   0.2828427), wk =   0.0160000
        k(   84) = (   0.6000000   0.2000000   0.4242640), wk =   0.0160000
        k(   85) = (   0.6000000   0.2000000   0.5656853), wk =   0.0160000
        k(   86) = (   0.6000000   0.4000000   0.0000000), wk =   0.0160000
        k(   87) = (   0.6000000   0.4000000   0.1414213), wk =   0.0160000
        k(   88) = (   0.6000000   0.4000000   0.2828427), wk =   0.0160000
        k(   89) = (   0.6000000   0.4000000   0.4242640), wk =   0.0160000
        k(   90) = (   0.6000000   0.4000000   0.5656853), wk =   0.0160000
        k(   91) = (   0.6000000   0.6000000   0.0000000), wk =   0.0160000
        k(   92) = (   0.6000000   0.6000000   0.1414213), wk =   0.0160000
        k(   93) = (   0.6000000   0.6000000   0.2828427), wk =   0.0160000
        k(   94) = (   0.6000000   0.6000000   0.4242640), wk =   0.0160000
        k(   95) = (   0.6000000   0.6000000   0.5656853), wk =   0.0160000
        k(   96) = (   0.6000000   0.8000000   0.0000000), wk =   0.0160000
        k(   97) = (   0.6000000   0.8000000   0.1414213), wk =   0.0160000
        k(   98) = (   0.6000000   0.8000000   0.2828427), wk =   0.0160000
        k(   99) = (   0.6000000   0.8000000   0.4242640), wk =   0.0160000
        k(  100) = (   0.6000000   0.8000000   0.5656853), wk =   0.0160000
        k(  101) = (   0.8000000   0.0000000   0.0000000), wk =   0.0160000
        k(  102) = (   0.8000000   0.0000000   0.1414213), wk =   0.0160000
        k(  103) = (   0.8000000   0.0000000   0.2828427), wk =   0.0160000
        k(  104) = (   0.8000000   0.0000000   0.4242640), wk =   0.0160000
        k(  105) = (   0.8000000   0.0000000   0.5656853), wk =   0.0160000
        k(  106) = (   0.8000000   0.2000000   0.0000000), wk =   0.0160000
        k(  107) = (   0.8000000   0.2000000   0.1414213), wk =   0.0160000
        k(  108) = (   0.8000000   0.2000000   0.2828427), wk =   0.0160000
        k(  109) = (   0.8000000   0.2000000   0.4242640), wk =   0.0160000
        k(  110) = (   0.8000000   0.2000000   0.5656853), wk =   0.0160000
        k(  111) = (   0.8000000   0.4000000   0.0000000), wk =   0.0160000
        k(  112) = (   0.8000000   0.4000000   0.1414213), wk =   0.0160000
        k(  113) = (   0.8000000   0.4000000   0.2828427), wk =   0.0160000
        k(  114) = (   0.8000000   0.4000000   0.4242640), wk =   0.0160000
        k(  115) = (   0.8000000   0.4000000   0.5656853), wk =   0.0160000
        k(  116) = (   0.8000000   0.6000000   0.0000000), wk =   0.0160000
        k(  117) = (   0.8000000   0.6000000   0.1414213), wk =   0.0160000
        k(  118) = (   0.8000000   0.6000000   0.2828427), wk =   0.0160000
        k(  119) = (   0.8000000   0.6000000   0.4242640), wk =   0.0160000
        k(  120) = (   0.8000000   0.6000000   0.5656853), wk =   0.0160000
        k(  121) = (   0.8000000   0.8000000   0.0000000), wk =   0.0160000
        k(  122) = (   0.8000000   0.8000000   0.1414213), wk =   0.0160000
        k(  123) = (   0.8000000   0.8000000   0.2828427), wk =   0.0160000
        k(  124) = (   0.8000000   0.8000000   0.4242640), wk =   0.0160000
        k(  125) = (   0.8000000   0.8000000   0.5656853), wk =   0.0160000

                       cryst. coord.
        k(    1) = (   0.0000000   0.0000000   0.0000000), wk =   0.0160000
        k(    2) = (   0.0000000   0.0000000   0.2000000), wk =   0.0160000
        k(    3) = (   0.0000000   0.0000000   0.4000000), wk =   0.0160000
        k(    4) = (   0.0000000   0.0000000   0.6000000), wk =   0.0160000
        k(    5) = (   0.0000000   0.0000000   0.8000000), wk =   0.0160000
        k(    6) = (   0.0000000   0.2000000   0.0000000), wk =   0.0160000
        k(    7) = (   0.0000000   0.2000000   0.2000000), wk =   0.0160000
        k(    8) = (   0.0000000   0.2000000   0.4000000), wk =   0.0160000
        k(    9) = (   0.0000000   0.2000000   0.6000000), wk =   0.0160000
        k(   10) = (   0.0000000   0.2000000   0.8000000), wk =   0.0160000
        k(   11) = (   0.0000000   0.4000000   0.0000000), wk =   0.0160000
        k(   12) = (   0.0000000   0.4000000   0.2000000), wk =   0.0160000
        k(   13) = (   0.0000000   0.4000000   0.4000000), wk =   0.0160000
        k(   14) = (   0.0000000   0.4000000   0.6000000), wk =   0.0160000
        k(   15) = (   0.0000000   0.4000000   0.8000000), wk =   0.0160000
        k(   16) = (   0.0000000   0.6000000   0.0000000), wk =   0.0160000
        k(   17) = (   0.0000000   0.6000000   0.2000000), wk =   0.0160000
        k(   18) = (   0.0000000   0.6000000   0.4000000), wk =   0.0160000
        k(   19) = (   0.0000000   0.6000000   0.6000000), wk =   0.0160000
        k(   20) = (   0.0000000   0.6000000   0.8000000), wk =   0.0160000
        k(   21) = (   0.0000000   0.8000000   0.0000000), wk =   0.0160000
        k(   22) = (   0.0000000   0.8000000   0.2000000), wk =   0.0160000
        k(   23) = (   0.0000000   0.8000000   0.4000000), wk =   0.0160000
        k(   24) = (   0.0000000   0.8000000   0.6000000), wk =   0.0160000
        k(   25) = (   0.0000000   0.8000000   0.8000000), wk =   0.0160000
        k(   26) = (   0.2000000   0.0000000   0.0000000), wk =   0.0160000
        k(   27) = (   0.2000000   0.0000000   0.2000000), wk =   0.0160000
        k(   28) = (   0.2000000   0.0000000   0.4000000), wk =   0.0160000
        k(   29) = (   0.2000000   0.0000000   0.6000000), wk =   0.0160000
        k(   30) = (   0.2000000   0.0000000   0.8000000), wk =   0.0160000
        k(   31) = (   0.2000000   0.2000000   0.0000000), wk =   0.0160000
        k(   32) = (   0.2000000   0.2000000   0.2000000), wk =   0.0160000
        k(   33) = (   0.2000000   0.2000000   0.4000000), wk =   0.0160000
        k(   34) = (   0.2000000   0.2000000   0.6000000), wk =   0.0160000
        k(   35) = (   0.2000000   0.2000000   0.8000000), wk =   0.0160000
        k(   36) = (   0.2000000   0.4000000   0.0000000), wk =   0.0160000
        k(   37) = (   0.2000000   0.4000000   0.2000000), wk =   0.0160000
        k(   38) = (   0.2000000   0.4000000   0.4000000), wk =   0.0160000
        k(   39) = (   0.2000000   0.4000000   0.6000000), wk =   0.0160000
        k(   40) = (   0.2000000   0.4000000   0.8000000), wk =   0.0160000
        k(   41) = (   0.2000000   0.6000000   0.0000000), wk =   0.0160000
        k(   42) = (   0.2000000   0.6000000   0.2000000), wk =   0.0160000
        k(   43) = (   0.2000000   0.6000000   0.4000000), wk =   0.0160000
        k(   44) = (   0.2000000   0.6000000   0.6000000), wk =   0.0160000
        k(   45) = (   0.2000000   0.6000000   0.8000000), wk =   0.0160000
        k(   46) = (   0.2000000   0.8000000   0.0000000), wk =   0.0160000
        k(   47) = (   0.2000000   0.8000000   0.2000000), wk =   0.0160000
        k(   48) = (   0.2000000   0.8000000   0.4000000), wk =   0.0160000
        k(   49) = (   0.2000000   0.8000000   0.6000000), wk =   0.0160000
        k(   50) = (   0.2000000   0.8000000   0.8000000), wk =   0.0160000
        k(   51) = (   0.4000000   0.0000000   0.0000000), wk =   0.0160000
        k(   52) = (   0.4000000   0.0000000   0.2000000), wk =   0.0160000
        k(   53) = (   0.4000000   0.0000000   0.4000000), wk =   0.0160000
        k(   54) = (   0.4000000   0.0000000   0.6000000), wk =   0.0160000
        k(   55) = (   0.4000000   0.0000000   0.8000000), wk =   0.0160000
        k(   56) = (   0.4000000   0.2000000   0.0000000), wk =   0.0160000
        k(   57) = (   0.4000000   0.2000000   0.2000000), wk =   0.0160000
        k(   58) = (   0.4000000   0.2000000   0.4000000), wk =   0.0160000
        k(   59) = (   0.4000000   0.2000000   0.6000000), wk =   0.0160000
        k(   60) = (   0.4000000   0.2000000   0.8000000), wk =   0.0160000
        k(   61) = (   0.4000000   0.4000000   0.0000000), wk =   0.0160000
        k(   62) = (   0.4000000   0.4000000   0.2000000), wk =   0.0160000
        k(   63) = (   0.4000000   0.4000000   0.4000000), wk =   0.0160000
        k(   64) = (   0.4000000   0.4000000   0.6000000), wk =   0.0160000
        k(   65) = (   0.4000000   0.4000000   0.8000000), wk =   0.0160000
        k(   66) = (   0.4000000   0.6000000   0.0000000), wk =   0.0160000
        k(   67) = (   0.4000000   0.6000000   0.2000000), wk =   0.0160000
        k(   68) = (   0.4000000   0.6000000   0.4000000), wk =   0.0160000
        k(   69) = (   0.4000000   0.6000000   0.6000000), wk =   0.0160000
        k(   70) = (   0.4000000   0.6000000   0.8000000), wk =   0.0160000
        k(   71) = (   0.4000000   0.8000000   0.0000000), wk =   0.0160000
        k(   72) = (   0.4000000   0.8000000   0.2000000), wk =   0.0160000
        k(   73) = (   0.4000000   0.8000000   0.4000000), wk =   0.0160000
        k(   74) = (   0.4000000   0.8000000   0.6000000), wk =   0.0160000
        k(   75) = (   0.4000000   0.8000000   0.8000000), wk =   0.0160000
        k(   76) = (   0.6000000   0.0000000   0.0000000), wk =   0.0160000
        k(   77) = (   0.6000000   0.0000000   0.2000000), wk =   0.0160000
        k(   78) = (   0.6000000   0.0000000   0.4000000), wk =   0.0160000
        k(   79) = (   0.6000000   0.0000000   0.6000000), wk =   0.0160000
        k(   80) = (   0.6000000   0.0000000   0.8000000), wk =   0.0160000
        k(   81) = (   0.6000000   0.2000000   0.0000000), wk =   0.0160000
        k(   82) = (   0.6000000   0.2000000   0.2000000), wk =   0.0160000
        k(   83) = (   0.6000000   0.2000000   0.4000000), wk =   0.0160000
        k(   84) = (   0.6000000   0.2000000   0.6000000), wk =   0.0160000
        k(   85) = (   0.6000000   0.2000000   0.8000000), wk =   0.0160000
        k(   86) = (   0.6000000   0.4000000   0.0000000), wk =   0.0160000
        k(   87) = (   0.6000000   0.4000000   0.2000000), wk =   0.0160000
        k(   88) = (   0.6000000   0.4000000   0.4000000), wk =   0.0160000
        k(   89) = (   0.6000000   0.4000000   0.6000000), wk =   0.0160000
        k(   90) = (   0.6000000   0.4000000   0.8000000), wk =   0.0160000
        k(   91) = (   0.6000000   0.6000000   0.0000000), wk =   0.0160000
        k(   92) = (   0.6000000   0.6000000   0.2000000), wk =   0.0160000
        k(   93) = (   0.6000000   0.6000000   0.4000000), wk =   0.0160000
        k(   94) = (   0.6000000   0.6000000   0.6000000), wk =   0.0160000
        k(   95) = (   0.6000000   0.6000000   0.8000000), wk =   0.0160000
        k(   96) = (   0.6000000   0.8000000   0.0000000), wk =   0.0160000
        k(   97) = (   0.6000000   0.8000000   0.2000000), wk =   0.0160000
        k(   98) = (   0.6000000   0.8000000   0.4000000), wk =   0.0160000
        k(   99) = (   0.6000000   0.8000000   0.6000000), wk =   0.0160000
        k(  100) = (   0.6000000   0.8000000   0.8000000), wk =   0.0160000
        k(  101) = (   0.8000000   0.0000000   0.0000000), wk =   0.0160000
        k(  102) = (   0.8000000   0.0000000   0.2000000), wk =   0.0160000
        k(  103) = (   0.8000000   0.0000000   0.4000000), wk =   0.0160000
        k(  104) = (   0.8000000   0.0000000   0.6000000), wk =   0.0160000
        k(  105) = (   0.8000000   0.0000000   0.8000000), wk =   0.0160000
        k(  106) = (   0.8000000   0.2000000   0.0000000), wk =   0.0160000
        k(  107) = (   0.8000000   0.2000000   0.2000000), wk =   0.0160000
        k(  108) = (   0.8000000   0.2000000   0.4000000), wk =   0.0160000
        k(  109) = (   0.8000000   0.2000000   0.6000000), wk =   0.0160000
        k(  110) = (   0.8000000   0.2000000   0.8000000), wk =   0.0160000
        k(  111) = (   0.8000000   0.4000000   0.0000000), wk =   0.0160000
        k(  112) = (   0.8000000   0.4000000   0.2000000), wk =   0.0160000
        k(  113) = (   0.8000000   0.4000000   0.4000000), wk =   0.0160000
        k(  114) = (   0.8000000   0.4000000   0.6000000), wk =   0.0160000
        k(  115) = (   0.8000000   0.4000000   0.8000000), wk =   0.0160000
        k(  116) = (   0.8000000   0.6000000   0.0000000), wk =   0.0160000
        k(  117) = (   0.8000000   0.6000000   0.2000000), wk =   0.0160000
        k(  118) = (   0.8000000   0.6000000   0.4000000), wk =   0.0160000
        k(  119) = (   0.8000000   0.6000000   0.6000000), wk =   0.0160000
        k(  120) = (   0.8000000   0.6000000   0.8000000), wk =   0.0160000
        k(  121) = (   0.8000000   0.8000000   0.0000000), wk =   0.0160000
        k(  122) = (   0.8000000   0.8000000   0.2000000), wk =   0.0160000
        k(  123) = (   0.8000000   0.8000000   0.4000000), wk =   0.0160000
        k(  124) = (   0.8000000   0.8000000   0.6000000), wk =   0.0160000
        k(  125) = (   0.8000000   0.8000000   0.8000000), wk =   0.0160000

     Dense  grid:   228191 G-vectors     FFT dimensions: (  72,  72,  96)

     Smooth grid:    80831 G-vectors     FFT dimensions: (  48,  48,  72)

     Dynamical RAM for                 wfc:      15.54 MB

     Dynamical RAM for     wfc (w. buffer):      15.54 MB

     Dynamical RAM for           str. fact:      10.45 MB

     Dynamical RAM for           local pot:       0.00 MB

     Dynamical RAM for          nlocal pot:      36.92 MB

     Dynamical RAM for                qrad:       4.82 MB

     Dynamical RAM for          rho,v,vnew:      21.84 MB

     Dynamical RAM for           G-vectors:      13.67 MB

     Dynamical RAM for          h,s,v(r/c):      29.89 MB

     Dynamical RAM for          <psi|beta>:       0.37 MB

     Dynamical RAM for                 psi:     124.29 MB

     Dynamical RAM for                hpsi:     124.29 MB

     Dynamical RAM for                spsi:     124.29 MB

     Dynamical RAM for      wfcinit/wfcrot:      31.31 MB

     Dynamical RAM for           addusdens:       8.84 MB

     Estimated static dynamical RAM per process >     136.14 MB

     Estimated max dynamical RAM per process >     539.26 MB

     Estimated total dynamical RAM >      67.41 GB

     Check: negative core charge=   -0.000002

     The potential is recalculated from file :
     ./out/smo.save/charge-density

     Starting wfcs are  120 randomized atomic wfcs
     Checking if some PAW data can be deallocated... 
       PAW data deallocated on  100 nodes for type:  1
       PAW data deallocated on  100 nodes for type:  2
       PAW data deallocated on   56 nodes for type:  3

     Band Structure Calculation
     Davidson diagonalization with overlap

     Computing kpt #:     1  of     1 on this pool
     c_bands:  1 eigenvalues not converged
     total cpu time spent up to now is       36.4 secs

     ethr =  5.95E-12,  avg # of iterations = 52.7

     total cpu time spent up to now is       36.4 secs

     End of band structure calculation

          k = 0.0000 0.0000 0.0000 ( 10085 PWs)   bands (ev):

   -48.9753 -48.9745 -48.9725 -48.9714 -23.2972 -23.2841 -23.2803 -23.2796
   -23.2748 -23.2709 -23.2078 -23.2070 -23.2053 -23.1999 -23.1979 -23.1948
   -22.0585 -22.0269 -22.0218 -22.0061  -6.9841  -6.7379  -6.2749  -6.1316
    -6.0928  -6.0244  -5.8462  -5.7873  -5.3654  -5.3552  -5.3400  -5.3094
    -4.3517  -4.3088  -4.2419  -4.0889  -4.0519  -4.0426  -4.0352  -4.0251
    -4.0085  -3.6949  -3.6370  -3.5906   5.1611   5.1825   5.2020   5.2918
     5.3466   5.4212   5.6103   6.2566   6.2633   6.2646   7.1910   7.1964
     7.6614   7.6667   7.7003   7.7290   7.7730   7.7765   7.7923   7.8409
     8.2056   8.7051   8.7352   8.8095   9.0533   9.0979   9.1193   9.4287
     9.4493   9.7159   9.7228   9.7411  10.0543  10.0972  10.1443  10.1466
    11.6645  11.6937  11.7177  11.8376  14.1132  14.2112  14.2879  14.3309
    14.9231  15.1279  15.1303  15.3646  15.5229  15.6321  15.7215  15.8003
    15.9459  15.9669  16.5576  17.0675  17.1297

     occupation numbers 
     1.0000   1.0000   1.0000   1.0000   1.0000   1.0000   1.0000   1.0000
     1.0000   1.0000   1.0000   1.0000   1.0000   1.0000   1.0000   1.0000
     1.0000   1.0000   1.0000   1.0000   1.0000   1.0000   1.0000   1.0000
     1.0000   1.0000   1.0000   1.0000   1.0000   1.0000   1.0000   1.0000
     1.0000   1.0000   1.0000   1.0000   1.0000   1.0000   1.0000   1.0000
     1.0000   1.0000   1.0000   1.0000   1.0000   1.0000   1.0000   1.0000
     1.0000   1.0000   1.0000   1.0000   1.0000   1.0000   1.0000   1.0000
     1.0000   1.0000   1.0000   1.0000   1.0000   1.0000   1.0000   1.0000
     1.0000   1.0000   1.0000   1.0000   1.0000   1.0000   1.0000   1.0000
     1.0000   1.0000   1.0000   1.0000   1.0000   1.0000   1.0000   1.0000
     1.0000   1.0000   1.0000   1.0000   0.0000   0.0000   0.0000   0.0000
     0.0000   0.0000   0.0000   0.0000   0.0000   0.0000   0.0000   0.0000
     0.0000   0.0000   0.0000   0.0000   0.0000

          k = 0.0000 0.0000 0.1414 ( 10050 PWs)   bands (ev):

   -48.9753 -48.9742 -48.9725 -48.9712 -23.2889 -23.2836 -23.2805 -23.2745
   -23.2721 -23.2712 -23.2166 -23.2098 -23.2067 -23.2032 -23.1976 -23.1949
   -22.0554 -22.0298 -22.0203 -22.0076  -6.9528  -6.7401  -6.1955  -6.1027
    -6.0880  -6.0344  -5.8293  -5.7498  -5.4526  -5.4203  -5.4181  -5.3737
    -4.3206  -4.2301  -4.1674  -4.0854  -4.0555  -4.0432  -4.0363  -4.0271
    -3.9935  -3.7422  -3.6850  -3.6289   5.1632   5.1804   5.3091   5.3528
     5.5003   5.5349   5.7628   6.1761   6.3203   6.3215   7.0363   7.0463
     7.5670   7.6140   7.6409   7.7591   7.7726   7.8472   7.8641   7.9406
     8.2986   8.3158   8.8890   8.9311   8.9367   8.9855   9.0006   9.3686
     9.4371   9.4637   9.6391   9.6670   9.9799  10.0119  10.1496  10.1658
    11.7053  11.8218  11.9842  12.0281  13.9347  14.0620  14.2766  14.3981
    15.0168  15.0202  15.1468  15.3419  15.5240  15.5880  15.8994  15.9264
    16.0992  16.1901  16.9088  17.1914  17.3101

     occupation numbers 
     1.0000   1.0000   1.0000   1.0000   1.0000   1.0000   1.0000   1.0000
     1.0000   1.0000   1.0000   1.0000   1.0000   1.0000   1.0000   1.0000
     1.0000   1.0000   1.0000   1.0000   1.0000   1.0000   1.0000   1.0000
     1.0000   1.0000   1.0000   1.0000   1.0000   1.0000   1.0000   1.0000
     1.0000   1.0000   1.0000   1.0000   1.0000   1.0000   1.0000   1.0000
     1.0000   1.0000   1.0000   1.0000   1.0000   1.0000   1.0000   1.0000
     1.0000   1.0000   1.0000   1.0000   1.0000   1.0000   1.0000   1.0000
     1.0000   1.0000   1.0000   1.0000   1.0000   1.0000   1.0000   1.0000
     1.0000   1.0000   1.0000   1.0000   1.0000   1.0000   1.0000   1.0000
     1.0000   1.0000   1.0000   1.0000   1.0000   1.0000   1.0000   1.0000
     1.0000   1.0000   1.0000   1.0000   0.0000   0.0000   0.0000   0.0000
     0.0000   0.0000   0.0000   0.0000   0.0000   0.0000   0.0000   0.0000
     0.0000   0.0000   0.0000   0.0000   0.0000

          k = 0.0000 0.0000 0.2828 ( 10046 PWs)   bands (ev):

   -48.9751 -48.9744 -48.9722 -48.9715 -23.2830 -23.2816 -23.2735 -23.2722
   -23.2666 -23.2526 -23.2392 -23.2288 -23.2059 -23.2046 -23.1968 -23.1957
   -22.0473 -22.0375 -22.0164 -22.0115  -6.8721  -6.7831  -6.0745  -6.0549
    -5.9825  -5.9802  -5.8340  -5.6972  -5.6500  -5.5572  -5.5232  -5.5117
    -4.2375  -4.1317  -4.0762  -4.0647  -4.0550  -4.0362  -4.0322  -3.9972
    -3.8732  -3.8721  -3.8167  -3.7335   5.1685   5.1751   5.3663   5.3707
     5.7082   5.9661   6.1717   6.4055   6.4833   6.4871   6.7451   6.7623
     6.9793   7.3359   7.6658   7.6992   7.7162   7.7221   8.1304   8.1480
     8.2370   8.5072   8.5116   8.5379   8.7343   8.7676   9.3352   9.3720
     9.4738   9.5063   9.5404   9.5743   9.7245   9.7559  10.1620  10.1724
    11.7377  11.7824  12.6764  12.7194  13.4060  13.4740  14.4653  14.5903
    14.7435  14.8593  15.2042  15.2807  15.5291  15.5452  16.3014  16.4720
    16.5116  16.8409  17.0085  17.0414  17.1882

     occupation numbers 
     1.0000   1.0000   1.0000   1.0000   1.0000   1.0000   1.0000   1.0000
     1.0000   1.0000   1.0000   1.0000   1.0000   1.0000   1.0000   1.0000
     1.0000   1.0000   1.0000   1.0000   1.0000   1.0000   1.0000   1.0000
     1.0000   1.0000   1.0000   1.0000   1.0000   1.0000   1.0000   1.0000
     1.0000   1.0000   1.0000   1.0000   1.0000   1.0000   1.0000   1.0000
     1.0000   1.0000   1.0000   1.0000   1.0000   1.0000   1.0000   1.0000
     1.0000   1.0000   1.0000   1.0000   1.0000   1.0000   1.0000   1.0000
     1.0000   1.0000   1.0000   1.0000   1.0000   1.0000   1.0000   1.0000
     1.0000   1.0000   1.0000   1.0000   1.0000   1.0000   1.0000   1.0000
     1.0000   1.0000   1.0000   1.0000   1.0000   1.0000   1.0000   1.0000
     1.0000   1.0000   1.0000   1.0000   0.9994   0.9837   0.0000   0.0000
     0.0000   0.0000   0.0000   0.0000   0.0000   0.0000   0.0000   0.0000
     0.0000   0.0000   0.0000   0.0000   0.0000

          k = 0.0000 0.0000 0.4243 ( 10046 PWs)   bands (ev):

   -48.9751 -48.9744 -48.9722 -48.9715 -23.2830 -23.2816 -23.2735 -23.2722
   -23.2666 -23.2526 -23.2392 -23.2288 -23.2059 -23.2046 -23.1968 -23.1957
   -22.0473 -22.0375 -22.0164 -22.0115  -6.8721  -6.7831  -6.0745  -6.0549
    -5.9825  -5.9802  -5.8340  -5.6972  -5.6500  -5.5572  -5.5232  -5.5117
    -4.2375  -4.1317  -4.0762  -4.0647  -4.0550  -4.0362  -4.0322  -3.9972
    -3.8732  -3.8721  -3.8167  -3.7335   5.1685   5.1751   5.3663   5.3707
     5.7082   5.9661   6.1717   6.4055   6.4833   6.4871   6.7451   6.7623
     6.9793   7.3359   7.6658   7.6992   7.7162   7.7221   8.1304   8.1480
     8.2370   8.5072   8.5116   8.5379   8.7343   8.7676   9.3352   9.3720
     9.4738   9.5063   9.5404   9.5743   9.7245   9.7559  10.1620  10.1724
    11.7377  11.7824  12.6764  12.7194  13.4060  13.4740  14.4653  14.5903
    14.7435  14.8593  15.2042  15.2807  15.5291  15.5452  16.3014  16.4720
    16.5116  16.8409  17.0085  17.0414  17.1882

     occupation numbers 
     1.0000   1.0000   1.0000   1.0000   1.0000   1.0000   1.0000   1.0000
     1.0000   1.0000   1.0000   1.0000   1.0000   1.0000   1.0000   1.0000
     1.0000   1.0000   1.0000   1.0000   1.0000   1.0000   1.0000   1.0000
     1.0000   1.0000   1.0000   1.0000   1.0000   1.0000   1.0000   1.0000
     1.0000   1.0000   1.0000   1.0000   1.0000   1.0000   1.0000   1.0000
     1.0000   1.0000   1.0000   1.0000   1.0000   1.0000   1.0000   1.0000
     1.0000   1.0000   1.0000   1.0000   1.0000   1.0000   1.0000   1.0000
     1.0000   1.0000   1.0000   1.0000   1.0000   1.0000   1.0000   1.0000
     1.0000   1.0000   1.0000   1.0000   1.0000   1.0000   1.0000   1.0000
     1.0000   1.0000   1.0000   1.0000   1.0000   1.0000   1.0000   1.0000
     1.0000   1.0000   1.0000   1.0000   0.9994   0.9837   0.0000   0.0000
     0.0000   0.0000   0.0000   0.0000   0.0000   0.0000   0.0000   0.0000
     0.0000   0.0000   0.0000   0.0000   0.0000

          k = 0.0000 0.0000 0.5657 ( 10050 PWs)   bands (ev):

   -48.9753 -48.9742 -48.9725 -48.9712 -23.2889 -23.2836 -23.2805 -23.2745
   -23.2721 -23.2712 -23.2166 -23.2098 -23.2067 -23.2032 -23.1976 -23.1949
   -22.0554 -22.0298 -22.0203 -22.0076  -6.9528  -6.7401  -6.1955  -6.1027
    -6.0880  -6.0344  -5.8293  -5.7498  -5.4526  -5.4203  -5.4181  -5.3737
    -4.3206  -4.2301  -4.1674  -4.0854  -4.0555  -4.0432  -4.0363  -4.0271
    -3.9935  -3.7422  -3.6850  -3.6289   5.1632   5.1804   5.3091   5.3528
     5.5003   5.5349   5.7628   6.1761   6.3203   6.3215   7.0363   7.0463
     7.5670   7.6140   7.6409   7.7591   7.7726   7.8472   7.8641   7.9406
     8.2986   8.3158   8.8890   8.9311   8.9367   8.9855   9.0006   9.3686
     9.4371   9.4637   9.6391   9.6670   9.9799  10.0119  10.1496  10.1658
    11.7053  11.8218  11.9842  12.0281  13.9347  14.0620  14.2766  14.3981
    15.0168  15.0202  15.1468  15.3419  15.5240  15.5880  15.8994  15.9264
    16.0992  16.1901  16.9088  17.1914  17.3101

     occupation numbers 
     1.0000   1.0000   1.0000   1.0000   1.0000   1.0000   1.0000   1.0000
     1.0000   1.0000   1.0000   1.0000   1.0000   1.0000   1.0000   1.0000
     1.0000   1.0000   1.0000   1.0000   1.0000   1.0000   1.0000   1.0000
     1.0000   1.0000   1.0000   1.0000   1.0000   1.0000   1.0000   1.0000
     1.0000   1.0000   1.0000   1.0000   1.0000   1.0000   1.0000   1.0000
     1.0000   1.0000   1.0000   1.0000   1.0000   1.0000   1.0000   1.0000
     1.0000   1.0000   1.0000   1.0000   1.0000   1.0000   1.0000   1.0000
     1.0000   1.0000   1.0000   1.0000   1.0000   1.0000   1.0000   1.0000
     1.0000   1.0000   1.0000   1.0000   1.0000   1.0000   1.0000   1.0000
     1.0000   1.0000   1.0000   1.0000   1.0000   1.0000   1.0000   1.0000
     1.0000   1.0000   1.0000   1.0000   0.0000   0.0000   0.0000   0.0000
     0.0000   0.0000   0.0000   0.0000   0.0000   0.0000   0.0000   0.0000
     0.0000   0.0000   0.0000   0.0000   0.0000

          k = 0.0000 0.2000 0.0000 ( 10076 PWs)   bands (ev):

   -48.9751 -48.9737 -48.9732 -48.9715 -23.2946 -23.2804 -23.2787 -23.2732
   -23.2677 -23.2636 -23.2164 -23.2118 -23.2072 -23.2054 -23.2019 -23.2015
   -22.0524 -22.0259 -22.0229 -22.0092  -6.8638  -6.7326  -6.4244  -6.0982
    -6.0603  -5.9631  -5.8124  -5.7571  -5.5919  -5.4499  -5.4448  -5.3859
    -4.2918  -4.2438  -4.0932  -4.0833  -4.0552  -4.0212  -4.0180  -3.9476
    -3.9136  -3.7397  -3.6584  -3.6316   5.2641   5.2917   5.4185   5.4395
     5.5582   5.6882   5.8074   6.1728   6.3140   6.3809   6.8874   7.2494
     7.2578   7.3064   7.4580   7.4773   7.6303   7.6375   7.7333   8.5273
     8.5472   8.5926   8.6708   8.7492   8.7678   8.9111   8.9384   9.1147
     9.1847   9.2815   9.4410   9.5545   9.9795   9.9834  10.0032  10.0680
    11.9606  12.0733  12.2122  12.3678  14.0722  14.0909  14.1519  14.3193
    14.8370  14.9043  15.0575  15.1380  15.8006  16.0263  16.0906  16.0975
    16.2409  16.3967  16.5220  17.3219  17.4392

     occupation numbers 
     1.0000   1.0000   1.0000   1.0000   1.0000   1.0000   1.0000   1.0000
     1.0000   1.0000   1.0000   1.0000   1.0000   1.0000   1.0000   1.0000
     1.0000   1.0000   1.0000   1.0000   1.0000   1.0000   1.0000   1.0000
     1.0000   1.0000   1.0000   1.0000   1.0000   1.0000   1.0000   1.0000
     1.0000   1.0000   1.0000   1.0000   1.0000   1.0000   1.0000   1.0000
     1.0000   1.0000   1.0000   1.0000   1.0000   1.0000   1.0000   1.0000
     1.0000   1.0000   1.0000   1.0000   1.0000   1.0000   1.0000   1.0000
     1.0000   1.0000   1.0000   1.0000   1.0000   1.0000   1.0000   1.0000
     1.0000   1.0000   1.0000   1.0000   1.0000   1.0000   1.0000   1.0000
     1.0000   1.0000   1.0000   1.0000   1.0000   1.0000   1.0000   1.0000
     1.0000   1.0000   1.0000   1.0000   0.0000   0.0000   0.0000   0.0000
     0.0000   0.0000   0.0000   0.0000   0.0000   0.0000   0.0000   0.0000
     0.0000   0.0000   0.0000   0.0000   0.0000

          k = 0.0000 0.2000 0.1414 ( 10060 PWs)   bands (ev):

   -48.9751 -48.9739 -48.9728 -48.9715 -23.2866 -23.2780 -23.2737 -23.2729
   -23.2672 -23.2639 -23.2171 -23.2146 -23.2132 -23.2081 -23.2051 -23.2022
   -22.0498 -22.0283 -22.0216 -22.0105  -6.8376  -6.7170  -6.3526  -6.0839
    -6.0532  -5.9780  -5.7753  -5.7414  -5.6801  -5.5227  -5.4634  -5.4393
    -4.2512  -4.2291  -4.0826  -4.0598  -4.0532  -4.0525  -3.9787  -3.9264
    -3.9224  -3.7814  -3.6848  -3.6596   5.4205   5.4375   5.4538   5.5334
     5.5778   5.7370   5.8511   6.2083   6.3703   6.3740   6.9600   7.0854
     7.1327   7.3186   7.3793   7.5162   7.5989   7.6145   7.6653   8.3183
     8.4610   8.4915   8.5660   8.7348   8.8870   8.9555   9.0519   9.0537
     9.2048   9.2121   9.4024   9.4094   9.9210   9.9414  10.0050  10.0327
    12.1605  12.2640  12.2901  12.3520  13.9803  14.0931  14.1402  14.1618
    14.8520  14.9030  14.9768  15.0338  16.0830  16.0925  16.0970  16.1815
    16.3816  16.5388  16.9006  17.5274  17.5768

     occupation numbers 
     1.0000   1.0000   1.0000   1.0000   1.0000   1.0000   1.0000   1.0000
     1.0000   1.0000   1.0000   1.0000   1.0000   1.0000   1.0000   1.0000
     1.0000   1.0000   1.0000   1.0000   1.0000   1.0000   1.0000   1.0000
     1.0000   1.0000   1.0000   1.0000   1.0000   1.0000   1.0000   1.0000
     1.0000   1.0000   1.0000   1.0000   1.0000   1.0000   1.0000   1.0000
     1.0000   1.0000   1.0000   1.0000   1.0000   1.0000   1.0000   1.0000
     1.0000   1.0000   1.0000   1.0000   1.0000   1.0000   1.0000   1.0000
     1.0000   1.0000   1.0000   1.0000   1.0000   1.0000   1.0000   1.0000
     1.0000   1.0000   1.0000   1.0000   1.0000   1.0000   1.0000   1.0000
     1.0000   1.0000   1.0000   1.0000   1.0000   1.0000   1.0000   1.0000
     1.0000   1.0000   1.0000   1.0000   0.0000   0.0000   0.0000   0.0000
     0.0000   0.0000   0.0000   0.0000   0.0000   0.0000   0.0000   0.0000
     0.0000   0.0000   0.0000   0.0000   0.0000

          k = 0.0000 0.2000 0.2828 ( 10071 PWs)   bands (ev):

   -48.9747 -48.9743 -48.9725 -48.9720 -23.2771 -23.2752 -23.2663 -23.2650
   -23.2647 -23.2536 -23.2379 -23.2296 -23.2144 -23.2127 -23.2041 -23.2031
   -22.0431 -22.0349 -22.0182 -22.0139  -6.7739  -6.7181  -6.1638  -6.0337
    -6.0154  -6.0064  -5.8654  -5.7873  -5.6824  -5.6023  -5.5585  -5.5324
    -4.2248  -4.1467  -4.1105  -4.0830  -4.0237  -3.9987  -3.9586  -3.8944
    -3.8782  -3.8386  -3.7641  -3.7358   5.4257   5.4321   5.6049   5.6121
     5.8819   6.0463   6.1646   6.3559   6.5498   6.5849   6.7545   6.8228
     6.9203   7.1354   7.3921   7.4432   7.4589   7.5638   7.7142   7.7874
     8.0834   8.0969   8.6188   8.7325   8.9657   9.0495   9.1625   9.2200
     9.2220   9.3064   9.3086   9.4209   9.6827   9.7423  10.0103  10.0174
    12.2558  12.3101  12.8000  12.8464  13.4746  13.5283  14.3354  14.3695
    14.6432  14.6701  14.9039  14.9755  16.0949  16.0959  16.6098  16.7462
    16.7635  17.1248  17.1461  17.2546  17.3957

     occupation numbers 
     1.0000   1.0000   1.0000   1.0000   1.0000   1.0000   1.0000   1.0000
     1.0000   1.0000   1.0000   1.0000   1.0000   1.0000   1.0000   1.0000
     1.0000   1.0000   1.0000   1.0000   1.0000   1.0000   1.0000   1.0000
     1.0000   1.0000   1.0000   1.0000   1.0000   1.0000   1.0000   1.0000
     1.0000   1.0000   1.0000   1.0000   1.0000   1.0000   1.0000   1.0000
     1.0000   1.0000   1.0000   1.0000   1.0000   1.0000   1.0000   1.0000
     1.0000   1.0000   1.0000   1.0000   1.0000   1.0000   1.0000   1.0000
     1.0000   1.0000   1.0000   1.0000   1.0000   1.0000   1.0000   1.0000
     1.0000   1.0000   1.0000   1.0000   1.0000   1.0000   1.0000   1.0000
     1.0000   1.0000   1.0000   1.0000   1.0000   1.0000   1.0000   1.0000
     1.0000   1.0000   1.0000   1.0000   0.9832   0.8080   0.0000   0.0000
     0.0000   0.0000   0.0000   0.0000   0.0000   0.0000   0.0000   0.0000
     0.0000   0.0000   0.0000   0.0000   0.0000

          k = 0.0000 0.2000 0.4243 ( 10071 PWs)   bands (ev):

   -48.9747 -48.9743 -48.9725 -48.9720 -23.2771 -23.2752 -23.2663 -23.2650
   -23.2647 -23.2536 -23.2379 -23.2296 -23.2144 -23.2127 -23.2041 -23.2031
   -22.0431 -22.0349 -22.0182 -22.0139  -6.7739  -6.7181  -6.1638  -6.0337
    -6.0154  -6.0064  -5.8654  -5.7873  -5.6824  -5.6023  -5.5585  -5.5324
    -4.2248  -4.1467  -4.1105  -4.0830  -4.0237  -3.9987  -3.9586  -3.8944
    -3.8782  -3.8386  -3.7641  -3.7358   5.4257   5.4321   5.6049   5.6121
     5.8819   6.0463   6.1646   6.3559   6.5498   6.5849   6.7545   6.8228
     6.9203   7.1354   7.3921   7.4433   7.4589   7.5638   7.7142   7.7874
     8.0834   8.0969   8.6188   8.7325   8.9657   9.0495   9.1625   9.2200
     9.2220   9.3064   9.3086   9.4209   9.6827   9.7423  10.0103  10.0174
    12.2558  12.3101  12.8000  12.8464  13.4746  13.5283  14.3354  14.3696
    14.6432  14.6701  14.9039  14.9755  16.0949  16.0959  16.6098  16.7462
    16.7635  17.1248  17.1461  17.2546  17.3957

     occupation numbers 
     1.0000   1.0000   1.0000   1.0000   1.0000   1.0000   1.0000   1.0000
     1.0000   1.0000   1.0000   1.0000   1.0000   1.0000   1.0000   1.0000
     1.0000   1.0000   1.0000   1.0000   1.0000   1.0000   1.0000   1.0000
     1.0000   1.0000   1.0000   1.0000   1.0000   1.0000   1.0000   1.0000
     1.0000   1.0000   1.0000   1.0000   1.0000   1.0000   1.0000   1.0000
     1.0000   1.0000   1.0000   1.0000   1.0000   1.0000   1.0000   1.0000
     1.0000   1.0000   1.0000   1.0000   1.0000   1.0000   1.0000   1.0000
     1.0000   1.0000   1.0000   1.0000   1.0000   1.0000   1.0000   1.0000
     1.0000   1.0000   1.0000   1.0000   1.0000   1.0000   1.0000   1.0000
     1.0000   1.0000   1.0000   1.0000   1.0000   1.0000   1.0000   1.0000
     1.0000   1.0000   1.0000   1.0000   0.9832   0.8080   0.0000   0.0000
     0.0000   0.0000   0.0000   0.0000   0.0000   0.0000   0.0000   0.0000
     0.0000   0.0000   0.0000   0.0000   0.0000

          k = 0.0000 0.2000 0.5657 ( 10060 PWs)   bands (ev):

   -48.9751 -48.9739 -48.9728 -48.9715 -23.2866 -23.2780 -23.2737 -23.2729
   -23.2672 -23.2639 -23.2171 -23.2146 -23.2132 -23.2081 -23.2051 -23.2022
   -22.0498 -22.0283 -22.0216 -22.0105  -6.8376  -6.7170  -6.3526  -6.0839
    -6.0532  -5.9780  -5.7753  -5.7414  -5.6801  -5.5227  -5.4634  -5.4393
    -4.2512  -4.2291  -4.0826  -4.0598  -4.0532  -4.0525  -3.9787  -3.9264
    -3.9224  -3.7814  -3.6848  -3.6596   5.4205   5.4375   5.4538   5.5334
     5.5778   5.7370   5.8511   6.2083   6.3703   6.3740   6.9600   7.0854
     7.1327   7.3186   7.3793   7.5162   7.5989   7.6145   7.6653   8.3183
     8.4610   8.4915   8.5660   8.7348   8.8870   8.9555   9.0519   9.0537
     9.2048   9.2121   9.4024   9.4094   9.9210   9.9414  10.0050  10.0327
    12.1605  12.2640  12.2901  12.3520  13.9803  14.0931  14.1402  14.1618
    14.8520  14.9030  14.9768  15.0338  16.0830  16.0925  16.0970  16.1815
    16.3816  16.5388  16.9006  17.5274  17.5768

     occupation numbers 
     1.0000   1.0000   1.0000   1.0000   1.0000   1.0000   1.0000   1.0000
     1.0000   1.0000   1.0000   1.0000   1.0000   1.0000   1.0000   1.0000
     1.0000   1.0000   1.0000   1.0000   1.0000   1.0000   1.0000   1.0000
     1.0000   1.0000   1.0000   1.0000   1.0000   1.0000   1.0000   1.0000
     1.0000   1.0000   1.0000   1.0000   1.0000   1.0000   1.0000   1.0000
     1.0000   1.0000   1.0000   1.0000   1.0000   1.0000   1.0000   1.0000
     1.0000   1.0000   1.0000   1.0000   1.0000   1.0000   1.0000   1.0000
     1.0000   1.0000   1.0000   1.0000   1.0000   1.0000   1.0000   1.0000
     1.0000   1.0000   1.0000   1.0000   1.0000   1.0000   1.0000   1.0000
     1.0000   1.0000   1.0000   1.0000   1.0000   1.0000   1.0000   1.0000
     1.0000   1.0000   1.0000   1.0000   0.0000   0.0000   0.0000   0.0000
     0.0000   0.0000   0.0000   0.0000   0.0000   0.0000   0.0000   0.0000
     0.0000   0.0000   0.0000   0.0000   0.0000

          k = 0.0000 0.4000 0.0000 ( 10072 PWs)   bands (ev):

   -48.9744 -48.9738 -48.9730 -48.9723 -23.2890 -23.2836 -23.2625 -23.2546
   -23.2485 -23.2447 -23.2388 -23.2311 -23.2247 -23.2210 -23.2054 -23.2034
   -22.0393 -22.0281 -22.0224 -22.0160  -6.7113  -6.6175  -6.5291  -6.0589
    -5.9778  -5.9609  -5.8827  -5.7966  -5.7667  -5.5937  -5.5769  -5.5655
    -4.2394  -4.1593  -4.1137  -4.0554  -3.9654  -3.9087  -3.8573  -3.8469
    -3.7890  -3.7744  -3.7481  -3.7080   5.2933   5.2950   6.0666   6.0681
     6.1107   6.1384   6.2791   6.3616   6.4765   6.4771   6.7901   6.7949
     6.8602   6.9325   7.0020   7.0435   7.3885   7.5321   7.6251   7.6448
     7.8890   8.1688   8.4656   8.6821   8.7726   8.9373   8.9494   9.1240
     9.2268   9.2358   9.3506   9.4482   9.5315   9.6821   9.6875   9.8880
    12.6499  12.8281  13.1456  13.3443  13.4782  13.5739  14.0523  14.3335
    14.3736  14.4779  14.6602  14.8109  16.0499  16.3544  16.7439  17.0534
    17.3382  17.4209  17.4758  17.5358  17.9088

     occupation numbers 
     1.0000   1.0000   1.0000   1.0000   1.0000   1.0000   1.0000   1.0000
     1.0000   1.0000   1.0000   1.0000   1.0000   1.0000   1.0000   1.0000
     1.0000   1.0000   1.0000   1.0000   1.0000   1.0000   1.0000   1.0000
     1.0000   1.0000   1.0000   1.0000   1.0000   1.0000   1.0000   1.0000
     1.0000   1.0000   1.0000   1.0000   1.0000   1.0000   1.0000   1.0000
     1.0000   1.0000   1.0000   1.0000   1.0000   1.0000   1.0000   1.0000
     1.0000   1.0000   1.0000   1.0000   1.0000   1.0000   1.0000   1.0000
     1.0000   1.0000   1.0000   1.0000   1.0000   1.0000   1.0000   1.0000
     1.0000   1.0000   1.0000   1.0000   1.0000   1.0000   1.0000   1.0000
     1.0000   1.0000   1.0000   1.0000   1.0000   1.0000   1.0000   1.0000
     1.0000   1.0000   1.0000   1.0000   0.9800   0.3111   0.0000   0.0000
     0.0000   0.0000   0.0000   0.0000   0.0000   0.0000   0.0000   0.0000
     0.0000   0.0000   0.0000   0.0000   0.0000

          k = 0.0000 0.4000 0.1414 ( 10078 PWs)   bands (ev):

   -48.9744 -48.9736 -48.9733 -48.9722 -23.2813 -23.2761 -23.2616 -23.2553
   -23.2481 -23.2449 -23.2381 -23.2319 -23.2244 -23.2214 -23.2134 -23.2110
   -22.0376 -22.0269 -22.0240 -22.0172  -6.6642  -6.5544  -6.5188  -6.0895
    -5.9654  -5.9623  -5.8778  -5.7951  -5.7635  -5.6570  -5.6081  -5.6073
    -4.2043  -4.1459  -4.1225  -4.0837  -3.9745  -3.9571  -3.8736  -3.8419
    -3.7991  -3.7673  -3.7136  -3.6966   5.5346   5.5383   6.0616   6.0680
     6.1129   6.1345   6.3403   6.4596   6.4982   6.5462   6.7414   6.8284
     6.8489   6.9844   7.0002   7.0589   7.2035   7.4292   7.4350   7.5417
     7.8292   7.9074   8.3289   8.4877   8.8811   8.9505   9.1158   9.1401
     9.1663   9.2834   9.3542   9.4781   9.5355   9.6721   9.6777   9.8626
    12.7871  12.9349  13.1705  13.3424  13.5474  13.6432  14.0615  14.2375
    14.2684  14.3076  14.5589  14.6273  16.4312  16.7533  16.8631  17.1487
    17.3335  17.4300  17.4763  17.6013  17.9522

     occupation numbers 
     1.0000   1.0000   1.0000   1.0000   1.0000   1.0000   1.0000   1.0000
     1.0000   1.0000   1.0000   1.0000   1.0000   1.0000   1.0000   1.0000
     1.0000   1.0000   1.0000   1.0000   1.0000   1.0000   1.0000   1.0000
     1.0000   1.0000   1.0000   1.0000   1.0000   1.0000   1.0000   1.0000
     1.0000   1.0000   1.0000   1.0000   1.0000   1.0000   1.0000   1.0000
     1.0000   1.0000   1.0000   1.0000   1.0000   1.0000   1.0000   1.0000
     1.0000   1.0000   1.0000   1.0000   1.0000   1.0000   1.0000   1.0000
     1.0000   1.0000   1.0000   1.0000   1.0000   1.0000   1.0000   1.0000
     1.0000   1.0000   1.0000   1.0000   1.0000   1.0000   1.0000   1.0000
     1.0000   1.0000   1.0000   1.0000   1.0000   1.0000   1.0000   1.0000
     1.0000   1.0000   1.0000   1.0000   0.6232   0.0149   0.0000   0.0000
     0.0000   0.0000   0.0000   0.0000   0.0000   0.0000   0.0000   0.0000
     0.0000   0.0000   0.0000   0.0000   0.0000

          k = 0.0000 0.4000 0.2828 ( 10090 PWs)   bands (ev):

   -48.9743 -48.9737 -48.9732 -48.9726 -23.2623 -23.2584 -23.2582 -23.2553
   -23.2472 -23.2459 -23.2378 -23.2350 -23.2327 -23.2299 -23.2235 -23.2223
   -22.0334 -22.0282 -22.0239 -22.0202  -6.5669  -6.5151  -6.3880  -6.2033
    -5.9343  -5.9327  -5.8942  -5.8254  -5.7573  -5.7236  -5.6822  -5.6816
    -4.1375  -4.1343  -4.1273  -4.1194  -3.9850  -3.9749  -3.9398  -3.9264
    -3.7349  -3.7245  -3.7047  -3.6946   6.0512   6.0628   6.1186   6.1264
     6.1295   6.1352   6.5137   6.5399   6.5694   6.7432   6.7452   6.7982
     6.8422   6.9444   6.9938   6.9994   7.0726   7.1738   7.1804   7.4900
     7.4951   7.5255   7.7745   7.9019   9.1041   9.1415   9.1686   9.1953
     9.3617   9.3639   9.4372   9.5336   9.5417   9.5469   9.6859   9.7764
    13.1632  13.2633  13.2676  13.2916  13.7352  13.7722  13.8334  13.8694
    14.1699  14.2152  14.2316  14.2489  17.1650  17.3605  17.3840  17.4092
    17.4424  17.4753  17.4984  17.5889  17.7728

     occupation numbers 
     1.0000   1.0000   1.0000   1.0000   1.0000   1.0000   1.0000   1.0000
     1.0000   1.0000   1.0000   1.0000   1.0000   1.0000   1.0000   1.0000
     1.0000   1.0000   1.0000   1.0000   1.0000   1.0000   1.0000   1.0000
     1.0000   1.0000   1.0000   1.0000   1.0000   1.0000   1.0000   1.0000
     1.0000   1.0000   1.0000   1.0000   1.0000   1.0000   1.0000   1.0000
     1.0000   1.0000   1.0000   1.0000   1.0000   1.0000   1.0000   1.0000
     1.0000   1.0000   1.0000   1.0000   1.0000   1.0000   1.0000   1.0000
     1.0000   1.0000   1.0000   1.0000   1.0000   1.0000   1.0000   1.0000
     1.0000   1.0000   1.0000   1.0000   1.0000   1.0000   1.0000   1.0000
     1.0000   1.0000   1.0000   1.0000   1.0000   1.0000   1.0000   1.0000
     1.0000   1.0000   1.0000   1.0000   0.0002   0.0000   0.0000   0.0000
     0.0000   0.0000   0.0000   0.0000   0.0000   0.0000   0.0000   0.0000
     0.0000   0.0000   0.0000   0.0000   0.0000

          k = 0.0000 0.4000 0.4243 ( 10090 PWs)   bands (ev):

   -48.9743 -48.9737 -48.9732 -48.9726 -23.2624 -23.2584 -23.2581 -23.2554
   -23.2472 -23.2459 -23.2378 -23.2349 -23.2327 -23.2299 -23.2235 -23.2223
   -22.0334 -22.0282 -22.0239 -22.0202  -6.5669  -6.5151  -6.3880  -6.2033
    -5.9343  -5.9327  -5.8942  -5.8254  -5.7573  -5.7236  -5.6822  -5.6816
    -4.1375  -4.1343  -4.1273  -4.1194  -3.9849  -3.9749  -3.9398  -3.9264
    -3.7349  -3.7245  -3.7047  -3.6946   6.0512   6.0628   6.1186   6.1264
     6.1295   6.1352   6.5137   6.5399   6.5694   6.7432   6.7452   6.7982
     6.8422   6.9444   6.9938   6.9994   7.0726   7.1738   7.1804   7.4900
     7.4951   7.5255   7.7745   7.9019   9.1041   9.1415   9.1686   9.1953
     9.3617   9.3639   9.4372   9.5336   9.5417   9.5469   9.6859   9.7764
    13.1632  13.2634  13.2676  13.2916  13.7351  13.7722  13.8335  13.8693
    14.1699  14.2152  14.2316  14.2489  17.1650  17.3605  17.3840  17.4092
    17.4424  17.4753  17.4984  17.5889  17.7728

     occupation numbers 
     1.0000   1.0000   1.0000   1.0000   1.0000   1.0000   1.0000   1.0000
     1.0000   1.0000   1.0000   1.0000   1.0000   1.0000   1.0000   1.0000
     1.0000   1.0000   1.0000   1.0000   1.0000   1.0000   1.0000   1.0000
     1.0000   1.0000   1.0000   1.0000   1.0000   1.0000   1.0000   1.0000
     1.0000   1.0000   1.0000   1.0000   1.0000   1.0000   1.0000   1.0000
     1.0000   1.0000   1.0000   1.0000   1.0000   1.0000   1.0000   1.0000
     1.0000   1.0000   1.0000   1.0000   1.0000   1.0000   1.0000   1.0000
     1.0000   1.0000   1.0000   1.0000   1.0000   1.0000   1.0000   1.0000
     1.0000   1.0000   1.0000   1.0000   1.0000   1.0000   1.0000   1.0000
     1.0000   1.0000   1.0000   1.0000   1.0000   1.0000   1.0000   1.0000
     1.0000   1.0000   1.0000   1.0000   0.0002   0.0000   0.0000   0.0000
     0.0000   0.0000   0.0000   0.0000   0.0000   0.0000   0.0000   0.0000
     0.0000   0.0000   0.0000   0.0000   0.0000

          k = 0.0000 0.4000 0.5657 ( 10078 PWs)   bands (ev):

   -48.9744 -48.9736 -48.9733 -48.9722 -23.2813 -23.2761 -23.2616 -23.2553
   -23.2481 -23.2449 -23.2381 -23.2319 -23.2244 -23.2214 -23.2134 -23.2110
   -22.0376 -22.0269 -22.0240 -22.0172  -6.6642  -6.5544  -6.5188  -6.0895
    -5.9654  -5.9623  -5.8778  -5.7951  -5.7635  -5.6570  -5.6081  -5.6073
    -4.2043  -4.1459  -4.1225  -4.0837  -3.9745  -3.9571  -3.8736  -3.8419
    -3.7991  -3.7673  -3.7136  -3.6966   5.5346   5.5383   6.0616   6.0680
     6.1129   6.1345   6.3403   6.4596   6.4982   6.5462   6.7414   6.8284
     6.8489   6.9844   7.0002   7.0589   7.2035   7.4292   7.4350   7.5417
     7.8292   7.9074   8.3289   8.4877   8.8811   8.9505   9.1158   9.1401
     9.1663   9.2834   9.3542   9.4781   9.5355   9.6721   9.6777   9.8626
    12.7871  12.9349  13.1705  13.3424  13.5474  13.6432  14.0615  14.2375
    14.2684  14.3076  14.5589  14.6273  16.4312  16.7533  16.8631  17.1487
    17.3335  17.4300  17.4763  17.6013  17.9515

     occupation numbers 
     1.0000   1.0000   1.0000   1.0000   1.0000   1.0000   1.0000   1.0000
     1.0000   1.0000   1.0000   1.0000   1.0000   1.0000   1.0000   1.0000
     1.0000   1.0000   1.0000   1.0000   1.0000   1.0000   1.0000   1.0000
     1.0000   1.0000   1.0000   1.0000   1.0000   1.0000   1.0000   1.0000
     1.0000   1.0000   1.0000   1.0000   1.0000   1.0000   1.0000   1.0000
     1.0000   1.0000   1.0000   1.0000   1.0000   1.0000   1.0000   1.0000
     1.0000   1.0000   1.0000   1.0000   1.0000   1.0000   1.0000   1.0000
     1.0000   1.0000   1.0000   1.0000   1.0000   1.0000   1.0000   1.0000
     1.0000   1.0000   1.0000   1.0000   1.0000   1.0000   1.0000   1.0000
     1.0000   1.0000   1.0000   1.0000   1.0000   1.0000   1.0000   1.0000
     1.0000   1.0000   1.0000   1.0000   0.6233   0.0149   0.0000   0.0000
     0.0000   0.0000   0.0000   0.0000   0.0000   0.0000   0.0000   0.0000
     0.0000   0.0000   0.0000   0.0000   0.0000

          k = 0.0000 0.6000 0.0000 ( 10072 PWs)   bands (ev):

   -48.9744 -48.9738 -48.9730 -48.9723 -23.2890 -23.2836 -23.2625 -23.2546
   -23.2485 -23.2447 -23.2388 -23.2311 -23.2247 -23.2210 -23.2054 -23.2034
   -22.0393 -22.0281 -22.0224 -22.0160  -6.7113  -6.6175  -6.5291  -6.0589
    -5.9778  -5.9609  -5.8827  -5.7966  -5.7667  -5.5937  -5.5769  -5.5655
    -4.2394  -4.1593  -4.1137  -4.0554  -3.9654  -3.9087  -3.8573  -3.8469
    -3.7890  -3.7744  -3.7481  -3.7080   5.2933   5.2950   6.0666   6.0681
     6.1107   6.1384   6.2791   6.3616   6.4765   6.4771   6.7901   6.7949
     6.8602   6.9325   7.0020   7.0435   7.3885   7.5321   7.6251   7.6448
     7.8890   8.1688   8.4656   8.6821   8.7726   8.9373   8.9494   9.1240
     9.2268   9.2358   9.3506   9.4482   9.5315   9.6821   9.6875   9.8880
    12.6499  12.8281  13.1456  13.3443  13.4782  13.5739  14.0523  14.3335
    14.3736  14.4779  14.6602  14.8109  16.0499  16.3544  16.7439  17.0534
    17.3382  17.4209  17.4758  17.5358  17.9088

     occupation numbers 
     1.0000   1.0000   1.0000   1.0000   1.0000   1.0000   1.0000   1.0000
     1.0000   1.0000   1.0000   1.0000   1.0000   1.0000   1.0000   1.0000
     1.0000   1.0000   1.0000   1.0000   1.0000   1.0000   1.0000   1.0000
     1.0000   1.0000   1.0000   1.0000   1.0000   1.0000   1.0000   1.0000
     1.0000   1.0000   1.0000   1.0000   1.0000   1.0000   1.0000   1.0000
     1.0000   1.0000   1.0000   1.0000   1.0000   1.0000   1.0000   1.0000
     1.0000   1.0000   1.0000   1.0000   1.0000   1.0000   1.0000   1.0000
     1.0000   1.0000   1.0000   1.0000   1.0000   1.0000   1.0000   1.0000
     1.0000   1.0000   1.0000   1.0000   1.0000   1.0000   1.0000   1.0000
     1.0000   1.0000   1.0000   1.0000   1.0000   1.0000   1.0000   1.0000
     1.0000   1.0000   1.0000   1.0000   0.9800   0.3111   0.0000   0.0000
     0.0000   0.0000   0.0000   0.0000   0.0000   0.0000   0.0000   0.0000
     0.0000   0.0000   0.0000   0.0000   0.0000

          k = 0.0000 0.6000 0.1414 ( 10078 PWs)   bands (ev):

   -48.9744 -48.9736 -48.9733 -48.9722 -23.2813 -23.2761 -23.2616 -23.2553
   -23.2481 -23.2449 -23.2381 -23.2319 -23.2244 -23.2214 -23.2134 -23.2110
   -22.0376 -22.0269 -22.0240 -22.0172  -6.6642  -6.5544  -6.5188  -6.0895
    -5.9654  -5.9623  -5.8778  -5.7951  -5.7635  -5.6570  -5.6081  -5.6073
    -4.2043  -4.1459  -4.1225  -4.0837  -3.9745  -3.9571  -3.8736  -3.8419
    -3.7991  -3.7673  -3.7136  -3.6966   5.5346   5.5383   6.0616   6.0680
     6.1129   6.1345   6.3403   6.4596   6.4982   6.5462   6.7414   6.8284
     6.8489   6.9844   7.0002   7.0589   7.2035   7.4292   7.4350   7.5417
     7.8292   7.9074   8.3289   8.4877   8.8811   8.9505   9.1158   9.1401
     9.1663   9.2834   9.3542   9.4781   9.5355   9.6721   9.6777   9.8626
    12.7871  12.9349  13.1705  13.3424  13.5474  13.6432  14.0615  14.2375
    14.2684  14.3076  14.5589  14.6273  16.4312  16.7533  16.8631  17.1487
    17.3335  17.4300  17.4763  17.6013  17.9523

     occupation numbers 
     1.0000   1.0000   1.0000   1.0000   1.0000   1.0000   1.0000   1.0000
     1.0000   1.0000   1.0000   1.0000   1.0000   1.0000   1.0000   1.0000
     1.0000   1.0000   1.0000   1.0000   1.0000   1.0000   1.0000   1.0000
     1.0000   1.0000   1.0000   1.0000   1.0000   1.0000   1.0000   1.0000
     1.0000   1.0000   1.0000   1.0000   1.0000   1.0000   1.0000   1.0000
     1.0000   1.0000   1.0000   1.0000   1.0000   1.0000   1.0000   1.0000
     1.0000   1.0000   1.0000   1.0000   1.0000   1.0000   1.0000   1.0000
     1.0000   1.0000   1.0000   1.0000   1.0000   1.0000   1.0000   1.0000
     1.0000   1.0000   1.0000   1.0000   1.0000   1.0000   1.0000   1.0000
     1.0000   1.0000   1.0000   1.0000   1.0000   1.0000   1.0000   1.0000
     1.0000   1.0000   1.0000   1.0000   0.6233   0.0149   0.0000   0.0000
     0.0000   0.0000   0.0000   0.0000   0.0000   0.0000   0.0000   0.0000
     0.0000   0.0000   0.0000   0.0000   0.0000

          k = 0.0000 0.6000 0.2828 ( 10090 PWs)   bands (ev):

   -48.9743 -48.9737 -48.9732 -48.9726 -23.2624 -23.2584 -23.2581 -23.2554
   -23.2472 -23.2459 -23.2378 -23.2349 -23.2327 -23.2299 -23.2235 -23.2223
   -22.0334 -22.0282 -22.0239 -22.0202  -6.5669  -6.5151  -6.3880  -6.2033
    -5.9343  -5.9327  -5.8942  -5.8254  -5.7573  -5.7236  -5.6822  -5.6816
    -4.1375  -4.1343  -4.1273  -4.1194  -3.9849  -3.9749  -3.9398  -3.9264
    -3.7349  -3.7245  -3.7047  -3.6946   6.0512   6.0628   6.1186   6.1264
     6.1295   6.1352   6.5137   6.5399   6.5694   6.7432   6.7452   6.7982
     6.8422   6.9444   6.9938   6.9994   7.0726   7.1738   7.1804   7.4900
     7.4951   7.5255   7.7745   7.9019   9.1041   9.1415   9.1686   9.1953
     9.3617   9.3639   9.4372   9.5336   9.5417   9.5469   9.6859   9.7764
    13.1632  13.2634  13.2676  13.2916  13.7351  13.7722  13.8335  13.8693
    14.1699  14.2152  14.2316  14.2489  17.1650  17.3605  17.3840  17.4092
    17.4424  17.4753  17.4984  17.5889  17.7728

     occupation numbers 
     1.0000   1.0000   1.0000   1.0000   1.0000   1.0000   1.0000   1.0000
     1.0000   1.0000   1.0000   1.0000   1.0000   1.0000   1.0000   1.0000
     1.0000   1.0000   1.0000   1.0000   1.0000   1.0000   1.0000   1.0000
     1.0000   1.0000   1.0000   1.0000   1.0000   1.0000   1.0000   1.0000
     1.0000   1.0000   1.0000   1.0000   1.0000   1.0000   1.0000   1.0000
     1.0000   1.0000   1.0000   1.0000   1.0000   1.0000   1.0000   1.0000
     1.0000   1.0000   1.0000   1.0000   1.0000   1.0000   1.0000   1.0000
     1.0000   1.0000   1.0000   1.0000   1.0000   1.0000   1.0000   1.0000
     1.0000   1.0000   1.0000   1.0000   1.0000   1.0000   1.0000   1.0000
     1.0000   1.0000   1.0000   1.0000   1.0000   1.0000   1.0000   1.0000
     1.0000   1.0000   1.0000   1.0000   0.0002   0.0000   0.0000   0.0000
     0.0000   0.0000   0.0000   0.0000   0.0000   0.0000   0.0000   0.0000
     0.0000   0.0000   0.0000   0.0000   0.0000

          k = 0.0000 0.6000 0.4243 ( 10090 PWs)   bands (ev):

   -48.9743 -48.9737 -48.9732 -48.9726 -23.2623 -23.2584 -23.2582 -23.2553
   -23.2472 -23.2459 -23.2378 -23.2350 -23.2327 -23.2299 -23.2235 -23.2223
   -22.0334 -22.0282 -22.0239 -22.0202  -6.5669  -6.5151  -6.3880  -6.2033
    -5.9343  -5.9327  -5.8942  -5.8254  -5.7573  -5.7236  -5.6822  -5.6816
    -4.1375  -4.1343  -4.1273  -4.1194  -3.9850  -3.9749  -3.9398  -3.9264
    -3.7349  -3.7245  -3.7047  -3.6946   6.0512   6.0628   6.1186   6.1264
     6.1295   6.1352   6.5137   6.5399   6.5694   6.7432   6.7452   6.7982
     6.8422   6.9444   6.9938   6.9994   7.0726   7.1738   7.1804   7.4900
     7.4951   7.5255   7.7745   7.9019   9.1041   9.1415   9.1686   9.1953
     9.3617   9.3639   9.4372   9.5336   9.5417   9.5469   9.6859   9.7764
    13.1632  13.2633  13.2676  13.2916  13.7352  13.7722  13.8334  13.8694
    14.1699  14.2152  14.2316  14.2489  17.1650  17.3605  17.3840  17.4092
    17.4424  17.4753  17.4984  17.5889  17.7728

     occupation numbers 
     1.0000   1.0000   1.0000   1.0000   1.0000   1.0000   1.0000   1.0000
     1.0000   1.0000   1.0000   1.0000   1.0000   1.0000   1.0000   1.0000
     1.0000   1.0000   1.0000   1.0000   1.0000   1.0000   1.0000   1.0000
     1.0000   1.0000   1.0000   1.0000   1.0000   1.0000   1.0000   1.0000
     1.0000   1.0000   1.0000   1.0000   1.0000   1.0000   1.0000   1.0000
     1.0000   1.0000   1.0000   1.0000   1.0000   1.0000   1.0000   1.0000
     1.0000   1.0000   1.0000   1.0000   1.0000   1.0000   1.0000   1.0000
     1.0000   1.0000   1.0000   1.0000   1.0000   1.0000   1.0000   1.0000
     1.0000   1.0000   1.0000   1.0000   1.0000   1.0000   1.0000   1.0000
     1.0000   1.0000   1.0000   1.0000   1.0000   1.0000   1.0000   1.0000
     1.0000   1.0000   1.0000   1.0000   0.0002   0.0000   0.0000   0.0000
     0.0000   0.0000   0.0000   0.0000   0.0000   0.0000   0.0000   0.0000
     0.0000   0.0000   0.0000   0.0000   0.0000

          k = 0.0000 0.6000 0.5657 ( 10078 PWs)   bands (ev):

   -48.9744 -48.9736 -48.9733 -48.9722 -23.2813 -23.2761 -23.2616 -23.2553
   -23.2481 -23.2449 -23.2381 -23.2319 -23.2244 -23.2214 -23.2134 -23.2110
   -22.0376 -22.0269 -22.0240 -22.0172  -6.6642  -6.5544  -6.5188  -6.0895
    -5.9654  -5.9623  -5.8778  -5.7951  -5.7635  -5.6570  -5.6081  -5.6073
    -4.2043  -4.1459  -4.1225  -4.0837  -3.9745  -3.9571  -3.8736  -3.8419
    -3.7991  -3.7673  -3.7136  -3.6966   5.5346   5.5383   6.0616   6.0680
     6.1129   6.1345   6.3403   6.4596   6.4982   6.5462   6.7414   6.8284
     6.8489   6.9844   7.0002   7.0589   7.2035   7.4292   7.4350   7.5417
     7.8292   7.9074   8.3289   8.4877   8.8811   8.9505   9.1158   9.1401
     9.1663   9.2834   9.3542   9.4781   9.5355   9.6721   9.6777   9.8626
    12.7871  12.9349  13.1705  13.3424  13.5474  13.6432  14.0615  14.2375
    14.2684  14.3076  14.5589  14.6273  16.4312  16.7533  16.8631  17.1487
    17.3335  17.4300  17.4763  17.6013  17.9552

     occupation numbers 
     1.0000   1.0000   1.0000   1.0000   1.0000   1.0000   1.0000   1.0000
     1.0000   1.0000   1.0000   1.0000   1.0000   1.0000   1.0000   1.0000
     1.0000   1.0000   1.0000   1.0000   1.0000   1.0000   1.0000   1.0000
     1.0000   1.0000   1.0000   1.0000   1.0000   1.0000   1.0000   1.0000
     1.0000   1.0000   1.0000   1.0000   1.0000   1.0000   1.0000   1.0000
     1.0000   1.0000   1.0000   1.0000   1.0000   1.0000   1.0000   1.0000
     1.0000   1.0000   1.0000   1.0000   1.0000   1.0000   1.0000   1.0000
     1.0000   1.0000   1.0000   1.0000   1.0000   1.0000   1.0000   1.0000
     1.0000   1.0000   1.0000   1.0000   1.0000   1.0000   1.0000   1.0000
     1.0000   1.0000   1.0000   1.0000   1.0000   1.0000   1.0000   1.0000
     1.0000   1.0000   1.0000   1.0000   0.6232   0.0149   0.0000   0.0000
     0.0000   0.0000   0.0000   0.0000   0.0000   0.0000   0.0000   0.0000
     0.0000   0.0000   0.0000   0.0000   0.0000

          k = 0.0000 0.8000 0.0000 ( 10076 PWs)   bands (ev):

   -48.9751 -48.9737 -48.9732 -48.9715 -23.2946 -23.2804 -23.2787 -23.2732
   -23.2677 -23.2636 -23.2164 -23.2118 -23.2072 -23.2054 -23.2019 -23.2015
   -22.0524 -22.0259 -22.0229 -22.0092  -6.8638  -6.7326  -6.4244  -6.0982
    -6.0603  -5.9631  -5.8124  -5.7571  -5.5919  -5.4499  -5.4448  -5.3859
    -4.2918  -4.2438  -4.0932  -4.0833  -4.0552  -4.0212  -4.0180  -3.9476
    -3.9136  -3.7397  -3.6584  -3.6316   5.2641   5.2917   5.4185   5.4395
     5.5582   5.6882   5.8074   6.1728   6.3140   6.3809   6.8874   7.2494
     7.2578   7.3064   7.4580   7.4773   7.6303   7.6375   7.7333   8.5273
     8.5472   8.5926   8.6708   8.7492   8.7678   8.9111   8.9384   9.1147
     9.1847   9.2815   9.4410   9.5545   9.9795   9.9834  10.0032  10.0680
    11.9606  12.0733  12.2122  12.3678  14.0722  14.0909  14.1519  14.3193
    14.8370  14.9043  15.0575  15.1380  15.8006  16.0263  16.0906  16.0975
    16.2409  16.3967  16.5220  17.3219  17.4392

     occupation numbers 
     1.0000   1.0000   1.0000   1.0000   1.0000   1.0000   1.0000   1.0000
     1.0000   1.0000   1.0000   1.0000   1.0000   1.0000   1.0000   1.0000
     1.0000   1.0000   1.0000   1.0000   1.0000   1.0000   1.0000   1.0000
     1.0000   1.0000   1.0000   1.0000   1.0000   1.0000   1.0000   1.0000
     1.0000   1.0000   1.0000   1.0000   1.0000   1.0000   1.0000   1.0000
     1.0000   1.0000   1.0000   1.0000   1.0000   1.0000   1.0000   1.0000
     1.0000   1.0000   1.0000   1.0000   1.0000   1.0000   1.0000   1.0000
     1.0000   1.0000   1.0000   1.0000   1.0000   1.0000   1.0000   1.0000
     1.0000   1.0000   1.0000   1.0000   1.0000   1.0000   1.0000   1.0000
     1.0000   1.0000   1.0000   1.0000   1.0000   1.0000   1.0000   1.0000
     1.0000   1.0000   1.0000   1.0000   0.0000   0.0000   0.0000   0.0000
     0.0000   0.0000   0.0000   0.0000   0.0000   0.0000   0.0000   0.0000
     0.0000   0.0000   0.0000   0.0000   0.0000

          k = 0.0000 0.8000 0.1414 ( 10060 PWs)   bands (ev):

   -48.9751 -48.9739 -48.9728 -48.9715 -23.2866 -23.2780 -23.2737 -23.2729
   -23.2672 -23.2639 -23.2171 -23.2146 -23.2132 -23.2081 -23.2051 -23.2022
   -22.0498 -22.0283 -22.0216 -22.0105  -6.8376  -6.7170  -6.3526  -6.0839
    -6.0532  -5.9780  -5.7753  -5.7414  -5.6801  -5.5227  -5.4634  -5.4393
    -4.2512  -4.2291  -4.0826  -4.0598  -4.0532  -4.0525  -3.9787  -3.9264
    -3.9224  -3.7814  -3.6848  -3.6596   5.4205   5.4375   5.4538   5.5334
     5.5778   5.7370   5.8511   6.2083   6.3703   6.3740   6.9600   7.0854
     7.1327   7.3186   7.3793   7.5162   7.5989   7.6145   7.6653   8.3183
     8.4610   8.4915   8.5660   8.7348   8.8870   8.9555   9.0519   9.0537
     9.2048   9.2121   9.4024   9.4094   9.9210   9.9414  10.0050  10.0327
    12.1605  12.2640  12.2901  12.3520  13.9803  14.0931  14.1402  14.1618
    14.8520  14.9030  14.9768  15.0338  16.0830  16.0925  16.0970  16.1815
    16.3816  16.5388  16.9006  17.5274  17.5768

     occupation numbers 
     1.0000   1.0000   1.0000   1.0000   1.0000   1.0000   1.0000   1.0000
     1.0000   1.0000   1.0000   1.0000   1.0000   1.0000   1.0000   1.0000
     1.0000   1.0000   1.0000   1.0000   1.0000   1.0000   1.0000   1.0000
     1.0000   1.0000   1.0000   1.0000   1.0000   1.0000   1.0000   1.0000
     1.0000   1.0000   1.0000   1.0000   1.0000   1.0000   1.0000   1.0000
     1.0000   1.0000   1.0000   1.0000   1.0000   1.0000   1.0000   1.0000
     1.0000   1.0000   1.0000   1.0000   1.0000   1.0000   1.0000   1.0000
     1.0000   1.0000   1.0000   1.0000   1.0000   1.0000   1.0000   1.0000
     1.0000   1.0000   1.0000   1.0000   1.0000   1.0000   1.0000   1.0000
     1.0000   1.0000   1.0000   1.0000   1.0000   1.0000   1.0000   1.0000
     1.0000   1.0000   1.0000   1.0000   0.0000   0.0000   0.0000   0.0000
     0.0000   0.0000   0.0000   0.0000   0.0000   0.0000   0.0000   0.0000
     0.0000   0.0000   0.0000   0.0000   0.0000

          k = 0.0000 0.8000 0.2828 ( 10071 PWs)   bands (ev):

   -48.9747 -48.9743 -48.9725 -48.9720 -23.2771 -23.2752 -23.2663 -23.2650
   -23.2647 -23.2536 -23.2379 -23.2296 -23.2144 -23.2127 -23.2041 -23.2031
   -22.0431 -22.0349 -22.0182 -22.0139  -6.7739  -6.7181  -6.1638  -6.0337
    -6.0154  -6.0064  -5.8654  -5.7873  -5.6824  -5.6023  -5.5585  -5.5324
    -4.2248  -4.1467  -4.1105  -4.0830  -4.0237  -3.9987  -3.9586  -3.8944
    -3.8782  -3.8386  -3.7641  -3.7358   5.4257   5.4321   5.6049   5.6121
     5.8819   6.0463   6.1646   6.3559   6.5498   6.5849   6.7545   6.8228
     6.9203   7.1354   7.3921   7.4433   7.4589   7.5638   7.7142   7.7874
     8.0834   8.0969   8.6188   8.7325   8.9657   9.0495   9.1625   9.2200
     9.2220   9.3064   9.3086   9.4209   9.6827   9.7423  10.0103  10.0174
    12.2558  12.3101  12.8000  12.8464  13.4746  13.5283  14.3354  14.3696
    14.6432  14.6701  14.9039  14.9755  16.0949  16.0959  16.6098  16.7462
    16.7635  17.1248  17.1461  17.2546  17.3957

     occupation numbers 
     1.0000   1.0000   1.0000   1.0000   1.0000   1.0000   1.0000   1.0000
     1.0000   1.0000   1.0000   1.0000   1.0000   1.0000   1.0000   1.0000
     1.0000   1.0000   1.0000   1.0000   1.0000   1.0000   1.0000   1.0000
     1.0000   1.0000   1.0000   1.0000   1.0000   1.0000   1.0000   1.0000
     1.0000   1.0000   1.0000   1.0000   1.0000   1.0000   1.0000   1.0000
     1.0000   1.0000   1.0000   1.0000   1.0000   1.0000   1.0000   1.0000
     1.0000   1.0000   1.0000   1.0000   1.0000   1.0000   1.0000   1.0000
     1.0000   1.0000   1.0000   1.0000   1.0000   1.0000   1.0000   1.0000
     1.0000   1.0000   1.0000   1.0000   1.0000   1.0000   1.0000   1.0000
     1.0000   1.0000   1.0000   1.0000   1.0000   1.0000   1.0000   1.0000
     1.0000   1.0000   1.0000   1.0000   0.9832   0.8080   0.0000   0.0000
     0.0000   0.0000   0.0000   0.0000   0.0000   0.0000   0.0000   0.0000
     0.0000   0.0000   0.0000   0.0000   0.0000

          k = 0.0000 0.8000 0.4243 ( 10071 PWs)   bands (ev):

   -48.9747 -48.9743 -48.9725 -48.9720 -23.2771 -23.2752 -23.2663 -23.2650
   -23.2647 -23.2536 -23.2379 -23.2296 -23.2144 -23.2127 -23.2041 -23.2031
   -22.0431 -22.0349 -22.0182 -22.0139  -6.7739  -6.7181  -6.1638  -6.0337
    -6.0154  -6.0064  -5.8654  -5.7873  -5.6824  -5.6023  -5.5585  -5.5324
    -4.2248  -4.1467  -4.1105  -4.0830  -4.0237  -3.9987  -3.9586  -3.8944
    -3.8782  -3.8386  -3.7641  -3.7358   5.4257   5.4321   5.6049   5.6121
     5.8819   6.0463   6.1646   6.3559   6.5498   6.5849   6.7545   6.8228
     6.9203   7.1354   7.3921   7.4432   7.4589   7.5638   7.7142   7.7874
     8.0834   8.0969   8.6188   8.7325   8.9657   9.0495   9.1625   9.2200
     9.2220   9.3064   9.3086   9.4209   9.6827   9.7423  10.0103  10.0174
    12.2558  12.3101  12.8000  12.8464  13.4746  13.5283  14.3354  14.3695
    14.6432  14.6701  14.9039  14.9755  16.0949  16.0959  16.6098  16.7462
    16.7635  17.1248  17.1461  17.2546  17.3957

     occupation numbers 
     1.0000   1.0000   1.0000   1.0000   1.0000   1.0000   1.0000   1.0000
     1.0000   1.0000   1.0000   1.0000   1.0000   1.0000   1.0000   1.0000
     1.0000   1.0000   1.0000   1.0000   1.0000   1.0000   1.0000   1.0000
     1.0000   1.0000   1.0000   1.0000   1.0000   1.0000   1.0000   1.0000
     1.0000   1.0000   1.0000   1.0000   1.0000   1.0000   1.0000   1.0000
     1.0000   1.0000   1.0000   1.0000   1.0000   1.0000   1.0000   1.0000
     1.0000   1.0000   1.0000   1.0000   1.0000   1.0000   1.0000   1.0000
     1.0000   1.0000   1.0000   1.0000   1.0000   1.0000   1.0000   1.0000
     1.0000   1.0000   1.0000   1.0000   1.0000   1.0000   1.0000   1.0000
     1.0000   1.0000   1.0000   1.0000   1.0000   1.0000   1.0000   1.0000
     1.0000   1.0000   1.0000   1.0000   0.9832   0.8080   0.0000   0.0000
     0.0000   0.0000   0.0000   0.0000   0.0000   0.0000   0.0000   0.0000
     0.0000   0.0000   0.0000   0.0000   0.0000

          k = 0.0000 0.8000 0.5657 ( 10060 PWs)   bands (ev):

   -48.9751 -48.9739 -48.9728 -48.9715 -23.2866 -23.2780 -23.2737 -23.2729
   -23.2672 -23.2639 -23.2171 -23.2146 -23.2132 -23.2081 -23.2051 -23.2022
   -22.0498 -22.0283 -22.0216 -22.0105  -6.8376  -6.7170  -6.3526  -6.0839
    -6.0532  -5.9780  -5.7753  -5.7414  -5.6801  -5.5227  -5.4634  -5.4393
    -4.2512  -4.2291  -4.0826  -4.0598  -4.0532  -4.0525  -3.9787  -3.9264
    -3.9224  -3.7814  -3.6848  -3.6596   5.4205   5.4375   5.4538   5.5334
     5.5778   5.7370   5.8511   6.2083   6.3703   6.3740   6.9600   7.0854
     7.1327   7.3186   7.3793   7.5162   7.5989   7.6145   7.6653   8.3183
     8.4610   8.4915   8.5660   8.7348   8.8870   8.9555   9.0519   9.0537
     9.2048   9.2121   9.4024   9.4094   9.9210   9.9414  10.0050  10.0327
    12.1605  12.2640  12.2901  12.3520  13.9803  14.0931  14.1402  14.1618
    14.8520  14.9030  14.9768  15.0338  16.0830  16.0925  16.0970  16.1815
    16.3816  16.5388  16.9006  17.5274  17.5768

     occupation numbers 
     1.0000   1.0000   1.0000   1.0000   1.0000   1.0000   1.0000   1.0000
     1.0000   1.0000   1.0000   1.0000   1.0000   1.0000   1.0000   1.0000
     1.0000   1.0000   1.0000   1.0000   1.0000   1.0000   1.0000   1.0000
     1.0000   1.0000   1.0000   1.0000   1.0000   1.0000   1.0000   1.0000
     1.0000   1.0000   1.0000   1.0000   1.0000   1.0000   1.0000   1.0000
     1.0000   1.0000   1.0000   1.0000   1.0000   1.0000   1.0000   1.0000
     1.0000   1.0000   1.0000   1.0000   1.0000   1.0000   1.0000   1.0000
     1.0000   1.0000   1.0000   1.0000   1.0000   1.0000   1.0000   1.0000
     1.0000   1.0000   1.0000   1.0000   1.0000   1.0000   1.0000   1.0000
     1.0000   1.0000   1.0000   1.0000   1.0000   1.0000   1.0000   1.0000
     1.0000   1.0000   1.0000   1.0000   0.0000   0.0000   0.0000   0.0000
     0.0000   0.0000   0.0000   0.0000   0.0000   0.0000   0.0000   0.0000
     0.0000   0.0000   0.0000   0.0000   0.0000

          k = 0.2000 0.0000 0.0000 ( 10076 PWs)   bands (ev):

   -48.9751 -48.9737 -48.9732 -48.9715 -23.2946 -23.2805 -23.2770 -23.2730
[...]
    17.1861  17.4492  17.6015  17.6731  17.9143

     occupation numbers 
     1.0000   1.0000   1.0000   1.0000   1.0000   1.0000   1.0000   1.0000
     1.0000   1.0000   1.0000   1.0000   1.0000   1.0000   1.0000   1.0000
     1.0000   1.0000   1.0000   1.0000   1.0000   1.0000   1.0000   1.0000
     1.0000   1.0000   1.0000   1.0000   1.0000   1.0000   1.0000   1.0000
     1.0000   1.0000   1.0000   1.0000   1.0000   1.0000   1.0000   1.0000
     1.0000   1.0000   1.0000   1.0000   1.0000   1.0000   1.0000   1.0000
     1.0000   1.0000   1.0000   1.0000   1.0000   1.0000   1.0000   1.0000
     1.0000   1.0000   1.0000   1.0000   1.0000   1.0000   1.0000   1.0000
     1.0000   1.0000   1.0000   1.0000   1.0000   1.0000   1.0000   1.0000
     1.0000   1.0000   1.0000   1.0000   1.0000   1.0000   1.0000   1.0000
     1.0000   1.0000   0.9383   0.8969   0.0813   0.0000   0.0000   0.0000
     0.0000   0.0000   0.0000   0.0000   0.0000   0.0000   0.0000   0.0000
     0.0000   0.0000   0.0000   0.0000   0.0000

          k = 0.8000 0.6000 0.2828 ( 10093 PWs)   bands (ev):

   -48.9741 -48.9736 -48.9733 -48.9728 -23.2778 -23.2746 -23.2604 -23.2599
   -23.2549 -23.2546 -23.2340 -23.2314 -23.2259 -23.2246 -23.2065 -23.2054
   -22.0313 -22.0272 -22.0237 -22.0208  -6.6599  -6.5478  -6.5312  -6.3261
    -5.9396  -5.8739  -5.8125  -5.8093  -5.7746  -5.7034  -5.6407  -5.6237
    -4.1538  -4.1382  -4.0660  -4.0572  -4.0092  -3.9464  -3.8399  -3.8108
    -3.7308  -3.7116  -3.7096  -3.6915   5.5019   5.5021   6.0398   6.0830
     6.1222   6.1365   6.2992   6.3345   6.5162   6.6591   6.7628   6.8488
     6.9385   7.0003   7.0465   7.1866   7.2275   7.3139   7.4278   7.4771
     7.6483   7.8376   8.2830   8.3783   8.8796   8.9565   8.9922   9.0702
     9.1957   9.2290   9.2837   9.3004   9.4481   9.4679   9.6933   9.7953
    12.8906  13.3434  13.5046  13.5329  13.6520  13.7109  13.9057  14.0713
    14.2556  14.3004  14.3481  14.5262  16.5533  16.7849  17.3396  17.3723
    17.4890  17.7188  17.7456  17.7732  17.8641

     occupation numbers 
     1.0000   1.0000   1.0000   1.0000   1.0000   1.0000   1.0000   1.0000
     1.0000   1.0000   1.0000   1.0000   1.0000   1.0000   1.0000   1.0000
     1.0000   1.0000   1.0000   1.0000   1.0000   1.0000   1.0000   1.0000
     1.0000   1.0000   1.0000   1.0000   1.0000   1.0000   1.0000   1.0000
     1.0000   1.0000   1.0000   1.0000   1.0000   1.0000   1.0000   1.0000
     1.0000   1.0000   1.0000   1.0000   1.0000   1.0000   1.0000   1.0000
     1.0000   1.0000   1.0000   1.0000   1.0000   1.0000   1.0000   1.0000
     1.0000   1.0000   1.0000   1.0000   1.0000   1.0000   1.0000   1.0000
     1.0000   1.0000   1.0000   1.0000   1.0000   1.0000   1.0000   1.0000
     1.0000   1.0000   1.0000   1.0000   1.0000   1.0000   1.0000   1.0000
     1.0000   1.0000   0.9308   0.7709   0.0097   0.0005   0.0000   0.0000
     0.0000   0.0000   0.0000   0.0000   0.0000   0.0000   0.0000   0.0000
     0.0000   0.0000   0.0000   0.0000   0.0000

          k = 0.8000 0.6000 0.4243 ( 10093 PWs)   bands (ev):

   -48.9741 -48.9736 -48.9733 -48.9728 -23.2778 -23.2746 -23.2604 -23.2599
   -23.2549 -23.2546 -23.2340 -23.2314 -23.2259 -23.2246 -23.2065 -23.2054
   -22.0313 -22.0272 -22.0237 -22.0208  -6.6599  -6.5478  -6.5312  -6.3261
    -5.9396  -5.8739  -5.8125  -5.8093  -5.7746  -5.7034  -5.6407  -5.6237
    -4.1538  -4.1382  -4.0660  -4.0572  -4.0092  -3.9464  -3.8399  -3.8108
    -3.7308  -3.7116  -3.7096  -3.6915   5.5019   5.5021   6.0398   6.0830
     6.1222   6.1365   6.2992   6.3345   6.5162   6.6591   6.7628   6.8488
     6.9385   7.0003   7.0465   7.1866   7.2275   7.3139   7.4278   7.4771
     7.6483   7.8376   8.2830   8.3783   8.8796   8.9565   8.9922   9.0702
     9.1957   9.2290   9.2837   9.3004   9.4481   9.4679   9.6933   9.7953
    12.8906  13.3434  13.5046  13.5329  13.6520  13.7109  13.9057  14.0713
    14.2556  14.3004  14.3481  14.5262  16.5533  16.7849  17.3396  17.3723
    17.4890  17.7189  17.7456  17.7732  17.8641

     occupation numbers 
     1.0000   1.0000   1.0000   1.0000   1.0000   1.0000   1.0000   1.0000
     1.0000   1.0000   1.0000   1.0000   1.0000   1.0000   1.0000   1.0000
     1.0000   1.0000   1.0000   1.0000   1.0000   1.0000   1.0000   1.0000
     1.0000   1.0000   1.0000   1.0000   1.0000   1.0000   1.0000   1.0000
     1.0000   1.0000   1.0000   1.0000   1.0000   1.0000   1.0000   1.0000
     1.0000   1.0000   1.0000   1.0000   1.0000   1.0000   1.0000   1.0000
     1.0000   1.0000   1.0000   1.0000   1.0000   1.0000   1.0000   1.0000
     1.0000   1.0000   1.0000   1.0000   1.0000   1.0000   1.0000   1.0000
     1.0000   1.0000   1.0000   1.0000   1.0000   1.0000   1.0000   1.0000
     1.0000   1.0000   1.0000   1.0000   1.0000   1.0000   1.0000   1.0000
     1.0000   1.0000   0.9308   0.7708   0.0097   0.0005   0.0000   0.0000
     0.0000   0.0000   0.0000   0.0000   0.0000   0.0000   0.0000   0.0000
     0.0000   0.0000   0.0000   0.0000   0.0000

          k = 0.8000 0.6000 0.5657 ( 10093 PWs)   bands (ev):

   -48.9743 -48.9738 -48.9732 -48.9725 -23.2818 -23.2780 -23.2761 -23.2720
   -23.2607 -23.2532 -23.2269 -23.2240 -23.2131 -23.2116 -23.2074 -23.2044
   -22.0346 -22.0260 -22.0240 -22.0185  -6.7798  -6.6942  -6.4974  -6.1564
    -6.0004  -5.8909  -5.8219  -5.8054  -5.7108  -5.6474  -5.6185  -5.5979
    -4.1509  -4.0932  -4.0722  -4.0672  -4.0317  -3.9056  -3.8602  -3.7848
    -3.7659  -3.7171  -3.7112  -3.6595   5.4407   5.5011   5.5281   5.6359
     5.8818   5.9780   6.1527   6.2556   6.4453   6.7393   6.8190   7.0422
     7.1308   7.1479   7.1869   7.2944   7.3730   7.4694   7.4786   7.7148
     7.7836   8.3239   8.4720   8.6434   8.7859   8.8029   8.9764   9.0068
     9.0458   9.0933   9.2007   9.3340   9.3719   9.4022   9.7920   9.9967
    12.3237  12.9502  13.5021  13.5135  13.6071  14.0445  14.1100  14.2780
    14.3416  14.3947  14.4679  14.8075  16.0910  16.5792  16.8721  17.0275
    17.1861  17.4492  17.6015  17.6731  17.9143

     occupation numbers 
     1.0000   1.0000   1.0000   1.0000   1.0000   1.0000   1.0000   1.0000
     1.0000   1.0000   1.0000   1.0000   1.0000   1.0000   1.0000   1.0000
     1.0000   1.0000   1.0000   1.0000   1.0000   1.0000   1.0000   1.0000
     1.0000   1.0000   1.0000   1.0000   1.0000   1.0000   1.0000   1.0000
     1.0000   1.0000   1.0000   1.0000   1.0000   1.0000   1.0000   1.0000
     1.0000   1.0000   1.0000   1.0000   1.0000   1.0000   1.0000   1.0000
     1.0000   1.0000   1.0000   1.0000   1.0000   1.0000   1.0000   1.0000
     1.0000   1.0000   1.0000   1.0000   1.0000   1.0000   1.0000   1.0000
     1.0000   1.0000   1.0000   1.0000   1.0000   1.0000   1.0000   1.0000
     1.0000   1.0000   1.0000   1.0000   1.0000   1.0000   1.0000   1.0000
     1.0000   1.0000   0.9383   0.8969   0.0813   0.0000   0.0000   0.0000
     0.0000   0.0000   0.0000   0.0000   0.0000   0.0000   0.0000   0.0000
     0.0000   0.0000   0.0000   0.0000   0.0000

          k = 0.8000 0.8000 0.0000 ( 10069 PWs)   bands (ev):

   -48.9751 -48.9737 -48.9733 -48.9715 -23.2927 -23.2846 -23.2810 -23.2776
   -23.2514 -23.2474 -23.2349 -23.2281 -23.2067 -23.2026 -23.2007 -23.1971
   -22.0472 -22.0253 -22.0234 -22.0117  -6.7805  -6.7641  -6.5566  -6.0899
    -5.9518  -5.9183  -5.8459  -5.6968  -5.6765  -5.5307  -5.5283  -5.5267
    -4.1927  -4.1368  -4.1072  -4.0321  -4.0247  -4.0007  -3.9728  -3.8860
    -3.8659  -3.7847  -3.6601  -3.6483   5.1908   5.2467   5.2897   5.4010
     5.8535   5.9706   6.2052   6.3802   6.3803   6.4793   6.4894   6.9775
     7.0413   7.3298   7.3854   7.5044   7.5502   7.7060   7.7119   8.2705
     8.4940   8.5138   8.5187   8.7323   8.7480   8.7695   8.8074   8.8724
     9.0226   9.3508   9.5638   9.5731   9.7605   9.7702   9.8074  10.1071
    11.7423  12.6954  12.7051  12.7995  13.5459  14.1739  14.2755  14.3757
    14.7008  14.7457  14.9020  15.0345  15.7069  16.2258  16.2613  16.4208
    16.4588  16.5139  17.1097  17.3249  17.8788

     occupation numbers 
     1.0000   1.0000   1.0000   1.0000   1.0000   1.0000   1.0000   1.0000
     1.0000   1.0000   1.0000   1.0000   1.0000   1.0000   1.0000   1.0000
     1.0000   1.0000   1.0000   1.0000   1.0000   1.0000   1.0000   1.0000
     1.0000   1.0000   1.0000   1.0000   1.0000   1.0000   1.0000   1.0000
     1.0000   1.0000   1.0000   1.0000   1.0000   1.0000   1.0000   1.0000
     1.0000   1.0000   1.0000   1.0000   1.0000   1.0000   1.0000   1.0000
     1.0000   1.0000   1.0000   1.0000   1.0000   1.0000   1.0000   1.0000
     1.0000   1.0000   1.0000   1.0000   1.0000   1.0000   1.0000   1.0000
     1.0000   1.0000   1.0000   1.0000   1.0000   1.0000   1.0000   1.0000
     1.0000   1.0000   1.0000   1.0000   1.0000   1.0000   1.0000   1.0000
     1.0000   1.0000   1.0000   1.0000   0.6399   0.0000   0.0000   0.0000
     0.0000   0.0000   0.0000   0.0000   0.0000   0.0000   0.0000   0.0000
     0.0000   0.0000   0.0000   0.0000   0.0000

          k = 0.8000 0.8000 0.1414 ( 10067 PWs)   bands (ev):

   -48.9749 -48.9737 -48.9732 -48.9717 -23.2857 -23.2829 -23.2783 -23.2736
   -23.2511 -23.2478 -23.2343 -23.2287 -23.2149 -23.2100 -23.2004 -23.1975
   -22.0450 -22.0273 -22.0223 -22.0128  -6.7505  -6.7461  -6.4889  -6.0724
    -5.9656  -5.9324  -5.8119  -5.8059  -5.6720  -5.5876  -5.5378  -5.5225
    -4.2337  -4.1013  -4.0725  -4.0554  -4.0365  -3.9655  -3.9532  -3.8971
    -3.8581  -3.7859  -3.6851  -3.6834   5.2409   5.2484   5.5316   5.5985
     5.8978   6.0141   6.2108   6.3402   6.4571   6.4724   6.6021   6.9531
     7.0639   7.1012   7.2379   7.4803   7.4929   7.6557   7.6884   8.1360
     8.2833   8.3981   8.4092   8.7466   8.7921   8.8309   8.9498   9.0520
     9.0736   9.3101   9.3818   9.4306   9.7154   9.7652   9.8081  10.0381
    12.0431  12.7106  12.7867  12.8112  13.6408  13.9999  14.1756  14.3276
    14.6682  14.7115  14.8785  14.9699  15.8132  16.2114  16.4303  16.5708
    16.6799  16.8472  17.1656  17.5224  17.8059

     occupation numbers 
     1.0000   1.0000   1.0000   1.0000   1.0000   1.0000   1.0000   1.0000
     1.0000   1.0000   1.0000   1.0000   1.0000   1.0000   1.0000   1.0000
     1.0000   1.0000   1.0000   1.0000   1.0000   1.0000   1.0000   1.0000
     1.0000   1.0000   1.0000   1.0000   1.0000   1.0000   1.0000   1.0000
     1.0000   1.0000   1.0000   1.0000   1.0000   1.0000   1.0000   1.0000
     1.0000   1.0000   1.0000   1.0000   1.0000   1.0000   1.0000   1.0000
     1.0000   1.0000   1.0000   1.0000   1.0000   1.0000   1.0000   1.0000
     1.0000   1.0000   1.0000   1.0000   1.0000   1.0000   1.0000   1.0000
     1.0000   1.0000   1.0000   1.0000   1.0000   1.0000   1.0000   1.0000
     1.0000   1.0000   1.0000   1.0000   1.0000   1.0000   1.0000   1.0000
     1.0000   1.0000   1.0000   1.0000   0.0167   0.0000   0.0000   0.0000
     0.0000   0.0000   0.0000   0.0000   0.0000   0.0000   0.0000   0.0000
     0.0000   0.0000   0.0000   0.0000   0.0000

          k = 0.8000 0.8000 0.2828 ( 10073 PWs)   bands (ev):

   -48.9744 -48.9741 -48.9727 -48.9723 -23.2825 -23.2802 -23.2633 -23.2543
   -23.2500 -23.2489 -23.2377 -23.2319 -23.2312 -23.2281 -23.1994 -23.1984
   -22.0394 -22.0327 -22.0194 -22.0158  -6.7102  -6.7052  -6.3096  -6.0976
    -5.9550  -5.9545  -5.9458  -5.8123  -5.6938  -5.6029  -5.5897  -5.5653
    -4.2312  -4.1645  -4.0706  -4.0493  -3.9755  -3.9260  -3.8952  -3.8751
    -3.8198  -3.8188  -3.7750  -3.7475   5.2526   5.2555   6.0005   6.0710
     6.1413   6.1553   6.2225   6.3879   6.4777   6.6993   6.7435   6.8116
     6.8723   6.8963   6.9988   7.1813   7.4475   7.5728   7.6119   7.6291
     7.8857   8.1736   8.4293   8.6279   8.8642   8.9348   9.0800   9.2167
     9.2467   9.2901   9.3624   9.4497   9.5401   9.6827   9.8163   9.8734
    12.6329  12.7501  12.8252  13.1612  13.4714  13.6895  13.9218  14.3186
    14.4877  14.7387  14.7580  14.8287  16.0349  16.1577  16.8598  16.9626
    17.3433  17.3535  17.3822  17.5077  17.7098

     occupation numbers 
     1.0000   1.0000   1.0000   1.0000   1.0000   1.0000   1.0000   1.0000
     1.0000   1.0000   1.0000   1.0000   1.0000   1.0000   1.0000   1.0000
     1.0000   1.0000   1.0000   1.0000   1.0000   1.0000   1.0000   1.0000
     1.0000   1.0000   1.0000   1.0000   1.0000   1.0000   1.0000   1.0000
     1.0000   1.0000   1.0000   1.0000   1.0000   1.0000   1.0000   1.0000
     1.0000   1.0000   1.0000   1.0000   1.0000   1.0000   1.0000   1.0000
     1.0000   1.0000   1.0000   1.0000   1.0000   1.0000   1.0000   1.0000
     1.0000   1.0000   1.0000   1.0000   1.0000   1.0000   1.0000   1.0000
     1.0000   1.0000   1.0000   1.0000   1.0000   1.0000   1.0000   1.0000
     1.0000   1.0000   1.0000   1.0000   1.0000   1.0000   1.0000   1.0000
     1.0000   1.0000   1.0000   1.0000   0.9856   0.0016   0.0000   0.0000
     0.0000   0.0000   0.0000   0.0000   0.0000   0.0000   0.0000   0.0000
     0.0000   0.0000   0.0000   0.0000   0.0000

          k = 0.8000 0.8000 0.4243 ( 10073 PWs)   bands (ev):

   -48.9744 -48.9741 -48.9727 -48.9723 -23.2825 -23.2802 -23.2633 -23.2543
   -23.2500 -23.2489 -23.2377 -23.2319 -23.2312 -23.2281 -23.1994 -23.1984
   -22.0394 -22.0327 -22.0194 -22.0158  -6.7102  -6.7052  -6.3096  -6.0976
    -5.9550  -5.9545  -5.9458  -5.8123  -5.6938  -5.6029  -5.5897  -5.5653
    -4.2312  -4.1645  -4.0706  -4.0493  -3.9755  -3.9260  -3.8952  -3.8751
    -3.8198  -3.8188  -3.7750  -3.7475   5.2526   5.2555   6.0005   6.0710
     6.1413   6.1553   6.2225   6.3879   6.4777   6.6993   6.7435   6.8116
     6.8723   6.8963   6.9988   7.1813   7.4475   7.5728   7.6119   7.6291
     7.8857   8.1736   8.4293   8.6279   8.8642   8.9348   9.0800   9.2167
     9.2467   9.2901   9.3624   9.4497   9.5401   9.6827   9.8163   9.8734
    12.6329  12.7501  12.8252  13.1612  13.4714  13.6895  13.9218  14.3186
    14.4877  14.7387  14.7580  14.8287  16.0349  16.1577  16.8598  16.9626
    17.3433  17.3535  17.3822  17.5077  17.7098

     occupation numbers 
     1.0000   1.0000   1.0000   1.0000   1.0000   1.0000   1.0000   1.0000
     1.0000   1.0000   1.0000   1.0000   1.0000   1.0000   1.0000   1.0000
     1.0000   1.0000   1.0000   1.0000   1.0000   1.0000   1.0000   1.0000
     1.0000   1.0000   1.0000   1.0000   1.0000   1.0000   1.0000   1.0000
     1.0000   1.0000   1.0000   1.0000   1.0000   1.0000   1.0000   1.0000
     1.0000   1.0000   1.0000   1.0000   1.0000   1.0000   1.0000   1.0000
     1.0000   1.0000   1.0000   1.0000   1.0000   1.0000   1.0000   1.0000
     1.0000   1.0000   1.0000   1.0000   1.0000   1.0000   1.0000   1.0000
     1.0000   1.0000   1.0000   1.0000   1.0000   1.0000   1.0000   1.0000
     1.0000   1.0000   1.0000   1.0000   1.0000   1.0000   1.0000   1.0000
     1.0000   1.0000   1.0000   1.0000   0.9856   0.0016   0.0000   0.0000
     0.0000   0.0000   0.0000   0.0000   0.0000   0.0000   0.0000   0.0000
     0.0000   0.0000   0.0000   0.0000   0.0000

          k = 0.8000 0.8000 0.5657 ( 10067 PWs)   bands (ev):

   -48.9749 -48.9737 -48.9732 -48.9717 -23.2857 -23.2829 -23.2783 -23.2736
   -23.2511 -23.2478 -23.2343 -23.2287 -23.2149 -23.2100 -23.2004 -23.1975
   -22.0450 -22.0273 -22.0223 -22.0128  -6.7505  -6.7461  -6.4889  -6.0724
    -5.9656  -5.9324  -5.8119  -5.8059  -5.6720  -5.5876  -5.5378  -5.5225
    -4.2337  -4.1013  -4.0725  -4.0554  -4.0365  -3.9655  -3.9532  -3.8971
    -3.8581  -3.7859  -3.6851  -3.6834   5.2409   5.2484   5.5316   5.5985
     5.8978   6.0141   6.2108   6.3402   6.4571   6.4724   6.6021   6.9531
     7.0639   7.1012   7.2379   7.4803   7.4929   7.6557   7.6884   8.1360
     8.2833   8.3981   8.4092   8.7466   8.7921   8.8309   8.9497   9.0520
     9.0736   9.3101   9.3818   9.4306   9.7154   9.7652   9.8081  10.0381
    12.0431  12.7106  12.7867  12.8112  13.6408  13.9999  14.1756  14.3276
    14.6682  14.7115  14.8785  14.9699  15.8132  16.2114  16.4303  16.5708
    16.6799  16.8472  17.1656  17.5224  17.8059

     occupation numbers 
     1.0000   1.0000   1.0000   1.0000   1.0000   1.0000   1.0000   1.0000
     1.0000   1.0000   1.0000   1.0000   1.0000   1.0000   1.0000   1.0000
     1.0000   1.0000   1.0000   1.0000   1.0000   1.0000   1.0000   1.0000
     1.0000   1.0000   1.0000   1.0000   1.0000   1.0000   1.0000   1.0000
     1.0000   1.0000   1.0000   1.0000   1.0000   1.0000   1.0000   1.0000
     1.0000   1.0000   1.0000   1.0000   1.0000   1.0000   1.0000   1.0000
     1.0000   1.0000   1.0000   1.0000   1.0000   1.0000   1.0000   1.0000
     1.0000   1.0000   1.0000   1.0000   1.0000   1.0000   1.0000   1.0000
     1.0000   1.0000   1.0000   1.0000   1.0000   1.0000   1.0000   1.0000
     1.0000   1.0000   1.0000   1.0000   1.0000   1.0000   1.0000   1.0000
     1.0000   1.0000   1.0000   1.0000   0.0167   0.0000   0.0000   0.0000
     0.0000   0.0000   0.0000   0.0000   0.0000   0.0000   0.0000   0.0000
     0.0000   0.0000   0.0000   0.0000   0.0000

     the Fermi energy is    13.5576 ev
     (compare with:    13.5576 eV, computed in scf)
     The nscf band energy is:      -51.93806922 Ry
     Calculation interrupted for call of DMFT code

     Writing all to output data dir ./out/smo.save/ :
     XML data file, pseudopotentials, collected wavefunctions

     init_run     :      1.43s CPU      1.85s WALL (       1 calls)
     electrons    :     32.75s CPU     41.18s WALL (       1 calls)

     Called by init_run:
     wfcinit      :      0.00s CPU      0.04s WALL (       1 calls)
     wfcinit:atom :      0.01s CPU      0.03s WALL (       1 calls)
     wfcinit:wfcr :      1.02s CPU      1.04s WALL (       1 calls)
     potinit      :      0.17s CPU      0.34s WALL (       1 calls)
     hinit0       :      1.12s CPU      1.20s WALL (       1 calls)

     Called by electrons:
     c_bands      :     32.67s CPU     32.99s WALL (       1 calls)
     v_of_rho     :      0.09s CPU      0.10s WALL (       1 calls)
     v_h          :      0.04s CPU      0.05s WALL (       1 calls)
     v_xc         :      0.05s CPU      0.06s WALL (       1 calls)
     newd         :      0.03s CPU      0.04s WALL (       1 calls)
     PAW_pot      :      0.03s CPU      0.03s WALL (       1 calls)

     Called by c_bands:
     init_us_2    :      0.04s CPU      0.07s WALL (       1 calls)
     cegterg      :     31.47s CPU     31.69s WALL (       6 calls)

     Called by sum_band:

     Called by *egterg:
     cdiaghg      :      4.54s CPU      4.55s WALL (     121 calls)
     cegterg:over :      4.75s CPU      4.77s WALL (     120 calls)
     cegterg:upda :      4.01s CPU      4.04s WALL (     120 calls)
     cegterg:last :      1.42s CPU      1.42s WALL (       7 calls)
     h_psi        :     14.68s CPU     14.81s WALL (     127 calls)
     s_psi        :      2.36s CPU      2.37s WALL (     127 calls)
     g_psi        :      0.06s CPU      0.06s WALL (     120 calls)

     Called by h_psi:
     h_psi:calbec :      2.11s CPU      2.12s WALL (     127 calls)
     vloc_psi     :     10.22s CPU     10.27s WALL (     127 calls)
                                        0.00s GPU  (     127 calls)
     add_vuspsi   :      2.26s CPU      2.27s WALL (     127 calls)

     General routines
     calbec       :      2.11s CPU      2.12s WALL (     127 calls)
     fft          :      0.06s CPU      0.06s WALL (       6 calls)
     ffts         :      0.00s CPU      0.00s WALL (       1 calls)
     fftw         :      9.24s CPU      9.28s WALL (    4518 calls)
     interpolate  :      0.02s CPU      0.03s WALL (       1 calls)
     davcio       :      0.00s CPU      4.36s WALL (       2 calls)

     Parallel routines

     PAW routines
     PAW_pot      :      0.03s CPU      0.03s WALL (       1 calls)

     PWSCF        :     34.74s CPU     44.58s WALL


   This run was terminated on:  20:39:11  29Nov2025            

=------------------------------------------------------------------------------=
   JOB DONE.
=------------------------------------------------------------------------------=
