
             +---------------------------------------------------+
             |                                                   |
             |                   WANNIER90                       |
             |                                                   |
             +---------------------------------------------------+
             |                                                   |
             |        Welcome to the Maximally-Localized         |
             |        Generalized Wannier Functions code         |
             |            http://www.wannier.org                 |
             |                                                   |
             |                                                   |
             |  Wannier90 Developer Group:                       |
             |    Giovanni Pizzi    (Paul Scherrer Institute)    |
             |    Valerio Vitale    (University of Trieste)      |
             |    David Vanderbilt  (Rutgers University)         |
             |    Nicola Marzari    (EPFL)                       |
             |    Ivo Souza         (Universidad del Pais Vasco) |
             |    Arash A. Mostofi  (Imperial College London)    |
             |    Jonathan R. Yates (University of Oxford)       |
             |                                                   |
             |  For the full list of Wannier90 3.x authors,      |
             |  please check the code documentation and the      |
             |  README on the GitHub page of the code            |
             |                                                   |
             |                                                   |
             |  Please cite                                      |
             |                                                   |
             |  [ref] "Wannier90 as a community code:            |
             |        new features and applications",            |
             |        G. Pizzi et al., J. Phys. Cond. Matt. 32,  |
             |        165902 (2020).                             |
             |        http://doi.org/10.1088/1361-648X/ab51ff    |
             |                                                   |
             |  in any publications arising from the use of      |
             |  this code. For the method please cite            |
             |                                                   |
             |  [ref] "Maximally Localized Generalised Wannier   |
             |         Functions for Composite Energy Bands"     |
             |         N. Marzari and D. Vanderbilt              |
             |         Phys. Rev. B 56 12847 (1997)              |
             |                                                   |
             |  [ref] "Maximally Localized Wannier Functions     |
             |         for Entangled Energy Bands"               |
             |         I. Souza, N. Marzari and D. Vanderbilt    |
             |         Phys. Rev. B 65 035109 (2001)             |
             |                                                   |
             |                                                   |
             | Copyright (c) 1996-2020                           |
             |        The Wannier90 Developer Group and          |
             |        individual contributors                    |
             |                                                   |
             |      Release: 3.1.0        5th March    2020      |
             |                                                   |
             | This program is free software; you can            |
             | redistribute it and/or modify it under the terms  |
             | of the GNU General Public License as published by |
             | the Free Software Foundation; either version 2 of |
             | the License, or (at your option) any later version|
             |                                                   |
             | This program is distributed in the hope that it   |
             | will be useful, but WITHOUT ANY WARRANTY; without |
             | even the implied warranty of MERCHANTABILITY or   |
             | FITNESS FOR A PARTICULAR PURPOSE. See the GNU     |
             | General Public License for more details.          |
             |                                                   |
             | You should have received a copy of the GNU General|
             | Public License along with this program; if not,   |
             | write to the Free Software Foundation, Inc.,      |
             | 675 Mass Ave, Cambridge, MA 02139, USA.           |
             |                                                   |
             +---------------------------------------------------+
             |    Execution started on 29Nov2025 at 20:40:42     |
             +---------------------------------------------------+
 
 ******************************************************************************
 * -> Using CODATA 2006 constant values                                       *
 *    (http://physics.nist.gov/cuu/Constants/index.html)                      *
 * -> Using Bohr value from CODATA                                            *
 ******************************************************************************

 Running in parallel on 128 CPUs

                                    ------
                                    SYSTEM
                                    ------

                              Lattice Vectors (Ang)
                    a_1     5.613960   0.000000   0.000000
                    a_2     0.000000   5.613960   0.000000
                    a_3     0.000000   0.000000   7.939340

                   Unit Cell Volume:     250.22058  (Ang^3)

                        Reciprocal-Space Vectors (Ang^-1)
                    b_1     1.119207   0.000000   0.000000
                    b_2     0.000000   1.119207   0.000000
                    b_3     0.000000   0.000000   0.791399
  
 *----------------------------------------------------------------------------*
 |   Site       Fractional Coordinate          Cartesian Coordinate (Ang)     |
 +----------------------------------------------------------------------------+
 | sr   1   0.00000   0.50000   0.25000   |    0.00000   2.80698   1.98483    |
 | sr   2   0.00000   0.50000   0.75000   |    0.00000   2.80698   5.95450    |
 | sr   3   0.50000   0.00000   0.75000   |    2.80698   0.00000   5.95450    |
 | sr   4   0.50000   0.00000   0.25000   |    2.80698   0.00000   1.98483    |
 | mo   1   0.00000   0.00000   0.00000   |    0.00000   0.00000   0.00000    |
 | mo   2   0.00000   0.00000   0.50000   |    0.00000   0.00000   3.96967    |
 | mo   3   0.50000   0.50000   0.50000   |    2.80698   2.80698   3.96967    |
 | mo   4   0.50000   0.50000   0.00000   |    2.80698   2.80698   0.00000    |
 | o    1   0.25000   0.75000   0.01781   |    1.40349   4.21047   0.14142    |
 | o    2   0.25000   0.25000  -0.01781   |    1.40349   1.40349  -0.14142    |
 | o    3   0.75000   0.25000   0.51781   |    4.21047   1.40349   4.11109    |
 | o    4   0.75000   0.75000   0.48219   |    4.21047   4.21047   3.82825    |
 | o    5   0.75000   0.25000  -0.01781   |    4.21047   1.40349  -0.14142    |
 | o    6   0.75000   0.75000   0.01781   |    4.21047   4.21047   0.14142    |
 | o    7   0.25000   0.75000   0.48219   |    1.40349   4.21047   3.82825    |
 | o    8   0.25000   0.25000   0.51781   |    1.40349   1.40349   4.11109    |
 | o    9   0.00000   0.03562   0.25000   |    0.00000   0.19999   1.98483    |
 | o   10   0.00000  -0.03562   0.75000   |    0.00000  -0.19999   5.95450    |
 | o   11   0.50000   0.53562   0.75000   |    2.80698   3.00697   5.95450    |
 | o   12   0.50000   0.46438   0.25000   |    2.80698   2.60699   1.98483    |
 *----------------------------------------------------------------------------*
                                -----------
                                PROJECTIONS
                                -----------
  
 +----------------------------------------------------------------------------+
 |     Frac. Coord.   l mr  r        z-axis               x-axis          Z/a |
 +----------------------------------------------------------------------------+
 |  0.00  0.00  0.00  2  2  1  0.000  0.000  1.000  0.707  0.707  0.000   1.0 |
 |  0.00  0.00  0.00  2  3  1  0.000  0.000  1.000  0.707  0.707  0.000   1.0 |
 |  0.00  0.00  0.00  2  5  1  0.000  0.000  1.000  0.707  0.707  0.000   1.0 |
 |  0.00  0.00  0.50  2  2  1  0.000  0.000  1.000  0.707  0.707  0.000   1.0 |
 |  0.00  0.00  0.50  2  3  1  0.000  0.000  1.000  0.707  0.707  0.000   1.0 |
 |  0.00  0.00  0.50  2  5  1  0.000  0.000  1.000  0.707  0.707  0.000   1.0 |
 |  0.50  0.50  0.50  2  2  1  0.000  0.000  1.000  0.707  0.707  0.000   1.0 |
 |  0.50  0.50  0.50  2  3  1  0.000  0.000  1.000  0.707  0.707  0.000   1.0 |
 |  0.50  0.50  0.50  2  5  1  0.000  0.000  1.000  0.707  0.707  0.000   1.0 |
 |  0.50  0.50  0.00  2  2  1  0.000  0.000  1.000  0.707  0.707  0.000   1.0 |
 |  0.50  0.50  0.00  2  3  1  0.000  0.000  1.000  0.707  0.707  0.000   1.0 |
 |  0.50  0.50  0.00  2  5  1  0.000  0.000  1.000  0.707  0.707  0.000   1.0 |
 |  0.00  0.00  0.00  2  1  1  0.000  0.000  1.000  0.707  0.707  0.000   1.0 |
 |  0.00  0.00  0.00  2  4  1  0.000  0.000  1.000  0.707  0.707  0.000   1.0 |
 |  0.00  0.00  0.50  2  1  1  0.000  0.000  1.000  0.707  0.707  0.000   1.0 |
 |  0.00  0.00  0.50  2  4  1  0.000  0.000  1.000  0.707  0.707  0.000   1.0 |
 |  0.50  0.50  0.50  2  1  1  0.000  0.000  1.000  0.707  0.707  0.000   1.0 |
 |  0.50  0.50  0.50  2  4  1  0.000  0.000  1.000  0.707  0.707  0.000   1.0 |
 |  0.50  0.50  0.00  2  1  1  0.000  0.000  1.000  0.707  0.707  0.000   1.0 |
 |  0.50  0.50  0.00  2  4  1  0.000  0.000  1.000  0.707  0.707  0.000   1.0 |
 |  0.25  0.75  0.02  1  1  1  0.000  0.000  1.000  1.000  0.000  0.000   1.0 |
 |  0.25  0.75  0.02  1  2  1  0.000  0.000  1.000  1.000  0.000  0.000   1.0 |
 |  0.25  0.75  0.02  1  3  1  0.000  0.000  1.000  1.000  0.000  0.000   1.0 |
 |  0.25  0.25 -0.02  1  1  1  0.000  0.000  1.000  1.000  0.000  0.000   1.0 |
 |  0.25  0.25 -0.02  1  2  1  0.000  0.000  1.000  1.000  0.000  0.000   1.0 |
 |  0.25  0.25 -0.02  1  3  1  0.000  0.000  1.000  1.000  0.000  0.000   1.0 |
 |  0.75  0.25  0.52  1  1  1  0.000  0.000  1.000  1.000  0.000  0.000   1.0 |
 |  0.75  0.25  0.52  1  2  1  0.000  0.000  1.000  1.000  0.000  0.000   1.0 |
 |  0.75  0.25  0.52  1  3  1  0.000  0.000  1.000  1.000  0.000  0.000   1.0 |
 |  0.75  0.75  0.48  1  1  1  0.000  0.000  1.000  1.000  0.000  0.000   1.0 |
 |  0.75  0.75  0.48  1  2  1  0.000  0.000  1.000  1.000  0.000  0.000   1.0 |
 |  0.75  0.75  0.48  1  3  1  0.000  0.000  1.000  1.000  0.000  0.000   1.0 |
 |  0.75  0.25 -0.02  1  1  1  0.000  0.000  1.000  1.000  0.000  0.000   1.0 |
 |  0.75  0.25 -0.02  1  2  1  0.000  0.000  1.000  1.000  0.000  0.000   1.0 |
 |  0.75  0.25 -0.02  1  3  1  0.000  0.000  1.000  1.000  0.000  0.000   1.0 |
 |  0.75  0.75  0.02  1  1  1  0.000  0.000  1.000  1.000  0.000  0.000   1.0 |
 |  0.75  0.75  0.02  1  2  1  0.000  0.000  1.000  1.000  0.000  0.000   1.0 |
 |  0.75  0.75  0.02  1  3  1  0.000  0.000  1.000  1.000  0.000  0.000   1.0 |
 |  0.25  0.75  0.48  1  1  1  0.000  0.000  1.000  1.000  0.000  0.000   1.0 |
 |  0.25  0.75  0.48  1  2  1  0.000  0.000  1.000  1.000  0.000  0.000   1.0 |
 |  0.25  0.75  0.48  1  3  1  0.000  0.000  1.000  1.000  0.000  0.000   1.0 |
 |  0.25  0.25  0.52  1  1  1  0.000  0.000  1.000  1.000  0.000  0.000   1.0 |
 |  0.25  0.25  0.52  1  2  1  0.000  0.000  1.000  1.000  0.000  0.000   1.0 |
 |  0.25  0.25  0.52  1  3  1  0.000  0.000  1.000  1.000  0.000  0.000   1.0 |
 |  0.00  0.04  0.25  1  1  1  0.000  0.000  1.000  1.000  0.000  0.000   1.0 |
 |  0.00  0.04  0.25  1  2  1  0.000  0.000  1.000  1.000  0.000  0.000   1.0 |
 |  0.00  0.04  0.25  1  3  1  0.000  0.000  1.000  1.000  0.000  0.000   1.0 |
 |  0.00 -0.04  0.75  1  1  1  0.000  0.000  1.000  1.000  0.000  0.000   1.0 |
 |  0.00 -0.04  0.75  1  2  1  0.000  0.000  1.000  1.000  0.000  0.000   1.0 |
 |  0.00 -0.04  0.75  1  3  1  0.000  0.000  1.000  1.000  0.000  0.000   1.0 |
 |  0.50  0.54  0.75  1  1  1  0.000  0.000  1.000  1.000  0.000  0.000   1.0 |
 |  0.50  0.54  0.75  1  2  1  0.000  0.000  1.000  1.000  0.000  0.000   1.0 |
 |  0.50  0.54  0.75  1  3  1  0.000  0.000  1.000  1.000  0.000  0.000   1.0 |
 |  0.50  0.46  0.25  1  1  1  0.000  0.000  1.000  1.000  0.000  0.000   1.0 |
 |  0.50  0.46  0.25  1  2  1  0.000  0.000  1.000  1.000  0.000  0.000   1.0 |
 |  0.50  0.46  0.25  1  3  1  0.000  0.000  1.000  1.000  0.000  0.000   1.0 |
 +----------------------------------------------------------------------------+
  
                                ------------
                                K-POINT GRID
                                ------------
  
             Grid size =  5 x  5 x  5      Total points =  125
  
 *----------------------------------------------------------------------------*
 | k-point      Fractional Coordinate        Cartesian Coordinate (Ang^-1)    |
 +----------------------------------------------------------------------------+
 |     1    0.00000   0.00000   0.00000   |    0.00000   0.00000   0.00000    |
 |     2    0.00000   0.00000   0.20000   |    0.00000   0.00000   0.15828    |
 |     3    0.00000   0.00000   0.40000   |    0.00000   0.00000   0.31656    |
 |     4    0.00000   0.00000   0.60000   |    0.00000   0.00000   0.47484    |
 |     5    0.00000   0.00000   0.80000   |    0.00000   0.00000   0.63312    |
 |     6    0.00000   0.20000   0.00000   |    0.00000   0.22384   0.00000    |
 |     7    0.00000   0.20000   0.20000   |    0.00000   0.22384   0.15828    |
 |     8    0.00000   0.20000   0.40000   |    0.00000   0.22384   0.31656    |
 |     9    0.00000   0.20000   0.60000   |    0.00000   0.22384   0.47484    |
 |    10    0.00000   0.20000   0.80000   |    0.00000   0.22384   0.63312    |
 |    11    0.00000   0.40000   0.00000   |    0.00000   0.44768   0.00000    |
 |    12    0.00000   0.40000   0.20000   |    0.00000   0.44768   0.15828    |
 |    13    0.00000   0.40000   0.40000   |    0.00000   0.44768   0.31656    |
 |    14    0.00000   0.40000   0.60000   |    0.00000   0.44768   0.47484    |
 |    15    0.00000   0.40000   0.80000   |    0.00000   0.44768   0.63312    |
 |    16    0.00000   0.60000   0.00000   |    0.00000   0.67152   0.00000    |
 |    17    0.00000   0.60000   0.20000   |    0.00000   0.67152   0.15828    |
 |    18    0.00000   0.60000   0.40000   |    0.00000   0.67152   0.31656    |
 |    19    0.00000   0.60000   0.60000   |    0.00000   0.67152   0.47484    |
 |    20    0.00000   0.60000   0.80000   |    0.00000   0.67152   0.63312    |
 |    21    0.00000   0.80000   0.00000   |    0.00000   0.89537   0.00000    |
 |    22    0.00000   0.80000   0.20000   |    0.00000   0.89537   0.15828    |
 |    23    0.00000   0.80000   0.40000   |    0.00000   0.89537   0.31656    |
 |    24    0.00000   0.80000   0.60000   |    0.00000   0.89537   0.47484    |
 |    25    0.00000   0.80000   0.80000   |    0.00000   0.89537   0.63312    |
 |    26    0.20000   0.00000   0.00000   |    0.22384   0.00000   0.00000    |
 |    27    0.20000   0.00000   0.20000   |    0.22384   0.00000   0.15828    |
 |    28    0.20000   0.00000   0.40000   |    0.22384   0.00000   0.31656    |
 |    29    0.20000   0.00000   0.60000   |    0.22384   0.00000   0.47484    |
 |    30    0.20000   0.00000   0.80000   |    0.22384   0.00000   0.63312    |
 |    31    0.20000   0.20000   0.00000   |    0.22384   0.22384   0.00000    |
 |    32    0.20000   0.20000   0.20000   |    0.22384   0.22384   0.15828    |
 |    33    0.20000   0.20000   0.40000   |    0.22384   0.22384   0.31656    |
 |    34    0.20000   0.20000   0.60000   |    0.22384   0.22384   0.47484    |
 |    35    0.20000   0.20000   0.80000   |    0.22384   0.22384   0.63312    |
 |    36    0.20000   0.40000   0.00000   |    0.22384   0.44768   0.00000    |
 |    37    0.20000   0.40000   0.20000   |    0.22384   0.44768   0.15828    |
 |    38    0.20000   0.40000   0.40000   |    0.22384   0.44768   0.31656    |
 |    39    0.20000   0.40000   0.60000   |    0.22384   0.44768   0.47484    |
 |    40    0.20000   0.40000   0.80000   |    0.22384   0.44768   0.63312    |
 |    41    0.20000   0.60000   0.00000   |    0.22384   0.67152   0.00000    |
 |    42    0.20000   0.60000   0.20000   |    0.22384   0.67152   0.15828    |
 |    43    0.20000   0.60000   0.40000   |    0.22384   0.67152   0.31656    |
 |    44    0.20000   0.60000   0.60000   |    0.22384   0.67152   0.47484    |
 |    45    0.20000   0.60000   0.80000   |    0.22384   0.67152   0.63312    |
 |    46    0.20000   0.80000   0.00000   |    0.22384   0.89537   0.00000    |
 |    47    0.20000   0.80000   0.20000   |    0.22384   0.89537   0.15828    |
 |    48    0.20000   0.80000   0.40000   |    0.22384   0.89537   0.31656    |
 |    49    0.20000   0.80000   0.60000   |    0.22384   0.89537   0.47484    |
 |    50    0.20000   0.80000   0.80000   |    0.22384   0.89537   0.63312    |
 |    51    0.40000   0.00000   0.00000   |    0.44768   0.00000   0.00000    |
 |    52    0.40000   0.00000   0.20000   |    0.44768   0.00000   0.15828    |
 |    53    0.40000   0.00000   0.40000   |    0.44768   0.00000   0.31656    |
 |    54    0.40000   0.00000   0.60000   |    0.44768   0.00000   0.47484    |
 |    55    0.40000   0.00000   0.80000   |    0.44768   0.00000   0.63312    |
 |    56    0.40000   0.20000   0.00000   |    0.44768   0.22384   0.00000    |
 |    57    0.40000   0.20000   0.20000   |    0.44768   0.22384   0.15828    |
 |    58    0.40000   0.20000   0.40000   |    0.44768   0.22384   0.31656    |
 |    59    0.40000   0.20000   0.60000   |    0.44768   0.22384   0.47484    |
 |    60    0.40000   0.20000   0.80000   |    0.44768   0.22384   0.63312    |
 |    61    0.40000   0.40000   0.00000   |    0.44768   0.44768   0.00000    |
 |    62    0.40000   0.40000   0.20000   |    0.44768   0.44768   0.15828    |
 |    63    0.40000   0.40000   0.40000   |    0.44768   0.44768   0.31656    |
 |    64    0.40000   0.40000   0.60000   |    0.44768   0.44768   0.47484    |
 |    65    0.40000   0.40000   0.80000   |    0.44768   0.44768   0.63312    |
 |    66    0.40000   0.60000   0.00000   |    0.44768   0.67152   0.00000    |
 |    67    0.40000   0.60000   0.20000   |    0.44768   0.67152   0.15828    |
 |    68    0.40000   0.60000   0.40000   |    0.44768   0.67152   0.31656    |
 |    69    0.40000   0.60000   0.60000   |    0.44768   0.67152   0.47484    |
 |    70    0.40000   0.60000   0.80000   |    0.44768   0.67152   0.63312    |
 |    71    0.40000   0.80000   0.00000   |    0.44768   0.89537   0.00000    |
 |    72    0.40000   0.80000   0.20000   |    0.44768   0.89537   0.15828    |
 |    73    0.40000   0.80000   0.40000   |    0.44768   0.89537   0.31656    |
 |    74    0.40000   0.80000   0.60000   |    0.44768   0.89537   0.47484    |
 |    75    0.40000   0.80000   0.80000   |    0.44768   0.89537   0.63312    |
 |    76    0.60000   0.00000   0.00000   |    0.67152   0.00000   0.00000    |
 |    77    0.60000   0.00000   0.20000   |    0.67152   0.00000   0.15828    |
 |    78    0.60000   0.00000   0.40000   |    0.67152   0.00000   0.31656    |
 |    79    0.60000   0.00000   0.60000   |    0.67152   0.00000   0.47484    |
 |    80    0.60000   0.00000   0.80000   |    0.67152   0.00000   0.63312    |
 |    81    0.60000   0.20000   0.00000   |    0.67152   0.22384   0.00000    |
 |    82    0.60000   0.20000   0.20000   |    0.67152   0.22384   0.15828    |
 |    83    0.60000   0.20000   0.40000   |    0.67152   0.22384   0.31656    |
 |    84    0.60000   0.20000   0.60000   |    0.67152   0.22384   0.47484    |
 |    85    0.60000   0.20000   0.80000   |    0.67152   0.22384   0.63312    |
 |    86    0.60000   0.40000   0.00000   |    0.67152   0.44768   0.00000    |
 |    87    0.60000   0.40000   0.20000   |    0.67152   0.44768   0.15828    |
 |    88    0.60000   0.40000   0.40000   |    0.67152   0.44768   0.31656    |
 |    89    0.60000   0.40000   0.60000   |    0.67152   0.44768   0.47484    |
 |    90    0.60000   0.40000   0.80000   |    0.67152   0.44768   0.63312    |
 |    91    0.60000   0.60000   0.00000   |    0.67152   0.67152   0.00000    |
 |    92    0.60000   0.60000   0.20000   |    0.67152   0.67152   0.15828    |
 |    93    0.60000   0.60000   0.40000   |    0.67152   0.67152   0.31656    |
 |    94    0.60000   0.60000   0.60000   |    0.67152   0.67152   0.47484    |
 |    95    0.60000   0.60000   0.80000   |    0.67152   0.67152   0.63312    |
 |    96    0.60000   0.80000   0.00000   |    0.67152   0.89537   0.00000    |
 |    97    0.60000   0.80000   0.20000   |    0.67152   0.89537   0.15828    |
 |    98    0.60000   0.80000   0.40000   |    0.67152   0.89537   0.31656    |
 |    99    0.60000   0.80000   0.60000   |    0.67152   0.89537   0.47484    |
 |   100    0.60000   0.80000   0.80000   |    0.67152   0.89537   0.63312    |
 |   101    0.80000   0.00000   0.00000   |    0.89537   0.00000   0.00000    |
 |   102    0.80000   0.00000   0.20000   |    0.89537   0.00000   0.15828    |
 |   103    0.80000   0.00000   0.40000   |    0.89537   0.00000   0.31656    |
 |   104    0.80000   0.00000   0.60000   |    0.89537   0.00000   0.47484    |
 |   105    0.80000   0.00000   0.80000   |    0.89537   0.00000   0.63312    |
 |   106    0.80000   0.20000   0.00000   |    0.89537   0.22384   0.00000    |
 |   107    0.80000   0.20000   0.20000   |    0.89537   0.22384   0.15828    |
 |   108    0.80000   0.20000   0.40000   |    0.89537   0.22384   0.31656    |
 |   109    0.80000   0.20000   0.60000   |    0.89537   0.22384   0.47484    |
 |   110    0.80000   0.20000   0.80000   |    0.89537   0.22384   0.63312    |
 |   111    0.80000   0.40000   0.00000   |    0.89537   0.44768   0.00000    |
 |   112    0.80000   0.40000   0.20000   |    0.89537   0.44768   0.15828    |
 |   113    0.80000   0.40000   0.40000   |    0.89537   0.44768   0.31656    |
 |   114    0.80000   0.40000   0.60000   |    0.89537   0.44768   0.47484    |
 |   115    0.80000   0.40000   0.80000   |    0.89537   0.44768   0.63312    |
 |   116    0.80000   0.60000   0.00000   |    0.89537   0.67152   0.00000    |
 |   117    0.80000   0.60000   0.20000   |    0.89537   0.67152   0.15828    |
 |   118    0.80000   0.60000   0.40000   |    0.89537   0.67152   0.31656    |
 |   119    0.80000   0.60000   0.60000   |    0.89537   0.67152   0.47484    |
 |   120    0.80000   0.60000   0.80000   |    0.89537   0.67152   0.63312    |
 |   121    0.80000   0.80000   0.00000   |    0.89537   0.89537   0.00000    |
 |   122    0.80000   0.80000   0.20000   |    0.89537   0.89537   0.15828    |
 |   123    0.80000   0.80000   0.40000   |    0.89537   0.89537   0.31656    |
 |   124    0.80000   0.80000   0.60000   |    0.89537   0.89537   0.47484    |
 |   125    0.80000   0.80000   0.80000   |    0.89537   0.89537   0.63312    |
 *----------------------------------------------------------------------------*
  
  
 *---------------------------------- MAIN ------------------------------------*
 |  Number of Wannier Functions               :                56             |
 |  Number of Objective Wannier Functions     :                56             |
 |  Number of input Bloch states              :                56             |
 |  Output verbosity (1=low, 5=high)          :                 2             |
 |  Timing Level (1=low, 5=high)              :                 1             |
 |  Optimisation (0=memory, 3=speed)          :                 3             |
 |  Length Unit                               :               Ang             |
 |  Post-processing setup (write *.nnkp)      :                 F             |
 |  Using Gamma-only branch of algorithms     :                 F             |
 *----------------------------------------------------------------------------*
 *------------------------------- WANNIERISE ---------------------------------*
 |  Total number of iterations                :             10000             |
 |  Number of CG steps before reset           :                 5             |
 |  Trial step length for line search         :             2.000             |
 |  Convergence tolerence                     :         0.100E-11             |
 |  Convergence window                        :                 5             |
 |  Iterations between writing output         :               200             |
 |  Iterations between backing up to disk     :               100             |
 |  Write r^2_nm to file                      :                 F             |
 |  Write xyz WF centres to file              :                 F             |
 |  Write on-site energies <0n|H|0n> to file  :                 F             |
 |  Use guiding centre to control phases      :                 F             |
 |  Use phases for initial projections        :                 F             |
 *----------------------------------------------------------------------------*
 *-------------------------------- PLOTTING ----------------------------------*
 |  Plotting interpolated bandstructure       :                 T             |
 |   Number of K-path sections                :                 7             |
 |   Divisions along first K-path section     :               100             |
 |   Output format                            :           gnuplot             |
 |   Output mode                              :               s-k             |
 *----------------------------------------------------------------------------*
 |   K-space path sections:                                                   |
 |    From: G       0.000  0.000  0.000     To: X       0.000  0.500  0.000   |
 |    From: X       0.000  0.500  0.000     To: M       0.500  0.500  0.000   |
 |    From: M       0.500  0.500  0.000     To: G       0.000  0.000  0.000   |
 |    From: G       0.000  0.000  0.000     To: Z       0.000  0.000  0.500   |
 |    From: Z       0.000  0.000  0.500     To: R       0.000  0.500  0.500   |
 |    From: R       0.000  0.500  0.500     To: A       0.500  0.500  0.500   |
 |    From: A       0.500  0.500  0.500     To: Z       0.000  0.000  0.500   |
 *----------------------------------------------------------------------------*
 |  Plotting Hamiltonian in WF basis          :                 T             |
 *----------------------------------------------------------------------------*

 *---------------------------------- K-MESH ----------------------------------*
 +----------------------------------------------------------------------------+
 |                    Distance to Nearest-Neighbour Shells                    |
 |                    ------------------------------------                    |
 |          Shell             Distance (Ang^-1)          Multiplicity         |
 |          -----             -----------------          ------------         |
 |             1                   0.158280                      2            |
 |             2                   0.223841                      4            |
 |             3                   0.274149                      8            |
 |             4                   0.316560                      6            |
 |             5                   0.353924                      8            |
 |             6                   0.387705                      8            |
 |             7                   0.447683                     12            |
 |             8                   0.474839                     10            |
 |             9                   0.500525                      8            |
 |            10                   0.524955                     24            |
 |            11                   0.548297                      8            |
 |            12                   0.570686                      8            |
 |            13                   0.592229                     16            |
 |            14                   0.633119                      6            |
 |            15                   0.652604                     16            |
 |            16                   0.671524                     12            |
 |            17                   0.689926                     24            |
 |            18                   0.707849                     24            |
 |            19                   0.725329                     16            |
 |            20                   0.742398                      8            |
 |            21                   0.775409                     24            |
 |            22                   0.791399                     10            |
 |            23                   0.807072                     24            |
 |            24                   0.822446                     32            |
 |            25                   0.852363                     24            |
 |            26                   0.866934                     16            |
 |            27                   0.895366                     12            |
 |            28                   0.909248                     16            |
 |            29                   0.922922                     16            |
 |            30                   0.936396                     48            |
 |            31                   0.949679                     30            |
 |            32                   0.962779                      8            |
 |            33                   0.975702                     24            |
 |            34                   1.001049                     24            |
 |            35                   1.013485                     32            |
 |            36                   1.025770                     16            |
 +----------------------------------------------------------------------------+
 | The b-vectors are chosen automatically                                     |
 | Shell:  1 w_b   19.9580947      (Ang^2)                                    |
 | Shell:  1 w_b   19.9580947      (Ang^2)                                    |
 | Shell:  2 w_b    9.9790432      (Ang^2)                                    |
 | The following shells are used:   1,  2                 |
 +----------------------------------------------------------------------------+
 |                        Shell   # Nearest-Neighbours                        |
 |                        -----   --------------------                        |
 |                          1               2                                 |
 |                          2               4                                 |
 +----------------------------------------------------------------------------+
 | Completeness relation is fully satisfied [Eq. (B1), PRB 56, 12847 (1997)]  |
 +----------------------------------------------------------------------------+
 |                  b_k Vectors (Ang^-1) and Weights (Ang^2)                  |
 |                  ----------------------------------------                  |
 |            No.         b_k(x)      b_k(y)      b_k(z)        w_b           |
 |            ---        --------------------------------     --------        |
 |             1         0.000000    0.000000    0.158280    19.958095        |
 |             2         0.000000    0.000000   -0.158280    19.958095        |
 |             3         0.000000    0.223841    0.000000     9.979043        |
 |             4         0.223841    0.000000    0.000000     9.979043        |
 |             5         0.000000   -0.223841    0.000000     9.979043        |
 |             6        -0.223841    0.000000    0.000000     9.979043        |
 +----------------------------------------------------------------------------+
 |                           b_k Directions (Ang^-1)                          |
 |                           -----------------------                          |
 |            No.           x           y           z                         |
 |            ---        --------------------------------                     |
 |             1         0.000000    0.000000    0.158280                     |
 |             2         0.000000    0.223841    0.000000                     |
 |             3         0.223841    0.000000    0.000000                     |
 +----------------------------------------------------------------------------+
  
 Starting a new Wannier90 calculation ...


 Reading overlaps from smo.mmn    :  Created on 29Nov2025 at 20:40:11

 Reading projections from smo.amn :  Created on 29Nov2025 at 20:39:53

 *------------------------------- WANNIERISE ---------------------------------*
 +--------------------------------------------------------------------+<-- CONV
 | Iter  Delta Spread     RMS Gradient      Spread (Ang^2)      Time  |<-- CONV
 +--------------------------------------------------------------------+<-- CONV

 ------------------------------------------------------------------------------
 Initial State
  WF centre and spread    1  ( -0.000034, -0.000819, -0.002167 )     2.69639449
  WF centre and spread    2  (  0.001122,  0.000180, -0.001057 )     2.69337104
  WF centre and spread    3  (  0.000022,  0.000011, -0.000000 )     1.44338531
  WF centre and spread    4  (  0.000020,  0.000315,  3.968724 )     2.67362383
  WF centre and spread    5  (  0.000429, -0.001063,  3.967236 )     2.68480762
  WF centre and spread    6  ( -0.000004, -0.000005,  3.969654 )     1.44146019
  WF centre and spread    7  (  2.807627,  2.807640,  3.972381 )     2.71190718
  WF centre and spread    8  (  2.808017,  2.806875,  3.972911 )     2.70866957
  WF centre and spread    9  (  2.806960,  2.806943,  3.969749 )     1.44111731
  WF centre and spread   10  (  2.809077,  2.807507,  0.001856 )     2.66795154
  WF centre and spread   11  (  2.806864,  2.806618,  0.003407 )     2.71588709
  WF centre and spread   12  (  2.807007,  2.807016,  0.000037 )     1.44528634
  WF centre and spread   13  (  0.018941,  0.006734, -0.075598 )    37.03687741
  WF centre and spread   14  (  0.072473, -0.058469,  0.021683 )    35.24381134
  WF centre and spread   15  (  0.047483,  0.002475,  3.885613 )    35.57336223
  WF centre and spread   16  ( -0.013807, -0.064723,  3.995089 )    37.61918363
  WF centre and spread   17  (  2.860730,  2.830569,  4.137777 )    37.06417930
  WF centre and spread   18  (  2.813734,  2.798740,  3.945860 )    35.63459812
  WF centre and spread   19  (  2.824799,  2.835173,  0.082987 )    37.26079578
  WF centre and spread   20  (  2.922428,  2.788804, -0.065215 )    34.67729678
  WF centre and spread   21  (  1.403444,  4.210495,  0.162965 )     1.16292047
  WF centre and spread   22  (  1.416202,  4.199638,  0.156504 )     6.58531717
  WF centre and spread   23  (  1.418562,  4.204109,  0.148744 )     6.53018612
  WF centre and spread   24  (  1.403457,  1.403475, -0.162912 )     1.16401475
  WF centre and spread   25  (  1.416216,  1.410598, -0.155134 )     6.51621927
  WF centre and spread   26  (  1.421286,  1.401156, -0.146001 )     6.46106375
  WF centre and spread   27  (  4.210516,  1.403563,  4.131027 )     1.16375849
  WF centre and spread   28  (  4.212638,  1.402341,  4.129520 )     6.77716455
  WF centre and spread   29  (  4.211557,  1.401646,  4.120473 )     6.72514773
  WF centre and spread   30  (  4.210558,  4.210476,  3.808233 )     1.16360628
  WF centre and spread   31  (  4.205215,  4.205551,  3.814555 )     6.73985994
  WF centre and spread   32  (  4.205486,  4.209142,  3.821341 )     6.71875439
  WF centre and spread   33  (  4.210519,  1.403487, -0.162876 )     1.16281928
  WF centre and spread   34  (  4.208964,  1.407466, -0.152169 )     6.67957561
  WF centre and spread   35  (  4.205798,  1.404286, -0.143148 )     6.58125856
  WF centre and spread   36  (  4.210557,  4.210498,  0.162922 )     1.16370040
  WF centre and spread   37  (  4.213766,  4.196862,  0.151482 )     6.45450823
  WF centre and spread   38  (  4.205281,  4.208090,  0.143155 )     6.41216755
  WF centre and spread   39  (  1.403480,  4.210415,  3.808175 )     1.16313971
  WF centre and spread   40  (  1.402054,  4.201691,  3.810481 )     6.74650527
  WF centre and spread   41  (  1.401300,  4.201304,  3.818397 )     6.72369758
  WF centre and spread   42  (  1.403474,  1.403518,  4.131157 )     1.16403685
  WF centre and spread   43  (  1.401486,  1.409858,  4.130191 )     6.72208330
  WF centre and spread   44  (  1.405006,  1.404158,  4.122591 )     6.70253439
  WF centre and spread   45  (  0.004404,  0.197952,  1.953020 )    11.96083837
  WF centre and spread   46  ( -0.000054,  0.201358,  1.984813 )     1.13525239
  WF centre and spread   47  (  0.000060,  0.244832,  1.984856 )     1.18308626
  WF centre and spread   48  (  0.010819, -0.200688,  5.937675 )    12.03436338
  WF centre and spread   49  ( -0.000103, -0.201346,  5.954523 )     1.13548549
  WF centre and spread   50  ( -0.000014, -0.244664,  5.954463 )     1.18382268
  WF centre and spread   51  (  2.819129,  3.017429,  6.017560 )    12.12594972
  WF centre and spread   52  (  2.807118,  3.008508,  5.954499 )     1.13141926
  WF centre and spread   53  (  2.807008,  3.051697,  5.954400 )     1.18452172
  WF centre and spread   54  (  2.813320,  2.608410,  2.017992 )    12.20760316
  WF centre and spread   55  (  2.807137,  2.605413,  1.984813 )     1.13148529
  WF centre and spread   56  (  2.807020,  2.562151,  1.984874 )     1.18384480
  Sum of centres and spreads (112.676554,112.155394,135.084083 )   490.41567826

      0     0.490E+03     0.0000000000      490.4156782559       0.00  <-- CONV
        O_D=      7.6082143 O_OD=    325.2298257 O_TOT=    490.4156783 <-- SPRD
 ------------------------------------------------------------------------------
 Cycle:      1
  WF centre and spread    1  ( -0.001090, -0.001238, -0.002605 )     2.22259927
  WF centre and spread    2  (  0.001406,  0.001009, -0.002469 )     2.21580901
  WF centre and spread    3  (  0.000168,  0.000057, -0.000164 )     1.39358694
  WF centre and spread    4  ( -0.000207, -0.000020,  3.969141 )     2.21161263
  WF centre and spread    5  ( -0.000133, -0.000630,  3.967175 )     2.21485532
  WF centre and spread    6  ( -0.000020, -0.000037,  3.969610 )     1.39230526
  WF centre and spread    7  (  2.807536,  2.808081,  3.973357 )     2.24326335
  WF centre and spread    8  (  2.807861,  2.808378,  3.972578 )     2.23053384
  WF centre and spread    9  (  2.806857,  2.806976,  3.969729 )     1.38879960
  WF centre and spread   10  (  2.809495,  2.807493,  0.001281 )     2.21721387
  WF centre and spread   11  (  2.807312,  2.806595,  0.003482 )     2.25576695
  WF centre and spread   12  (  2.807074,  2.807019,  0.000115 )     1.39974621
  WF centre and spread   13  (  0.028969,  0.067864, -0.177002 )    37.27098854
  WF centre and spread   14  ( -0.000805, -0.087511,  0.004885 )    33.39797824
  WF centre and spread   15  (  0.080261, -0.008868,  3.786376 )    35.10159715
  WF centre and spread   16  ( -0.077790, -0.103963,  4.003249 )    35.12782274
  WF centre and spread   17  (  2.881998,  2.887011,  4.273935 )    37.02391292
  WF centre and spread   18  (  2.703550,  2.823532,  3.963252 )    34.61769291
  WF centre and spread   19  (  2.856449,  2.823784,  0.192574 )    34.33193320
  WF centre and spread   20  (  2.920540,  2.817973, -0.108489 )    33.13672510
  WF centre and spread   21  (  1.403329,  4.210460,  0.165278 )     1.13214331
  WF centre and spread   22  (  1.415659,  4.200825,  0.151889 )     4.74355940
  WF centre and spread   23  (  1.418121,  4.207189,  0.144675 )     4.74718768
  WF centre and spread   24  (  1.403445,  1.403582, -0.165011 )     1.13306857
  WF centre and spread   25  (  1.412847,  1.410579, -0.158431 )     4.71069544
  WF centre and spread   26  (  1.419789,  1.397575, -0.149385 )     4.70508286
  WF centre and spread   27  (  4.210604,  1.403477,  4.132513 )     1.13366434
  WF centre and spread   28  (  4.209883,  1.403584,  4.132930 )     4.80389751
  WF centre and spread   29  (  4.209612,  1.402888,  4.124712 )     4.81046737
  WF centre and spread   30  (  4.210554,  4.210459,  3.806731 )     1.13238744
  WF centre and spread   31  (  4.203017,  4.203775,  3.818479 )     4.82958674
  WF centre and spread   32  (  4.203441,  4.209928,  3.825188 )     4.86063237
  WF centre and spread   33  (  4.210603,  1.403495, -0.164632 )     1.13407269
  WF centre and spread   34  (  4.206048,  1.411361, -0.155306 )     4.78740260
  WF centre and spread   35  (  4.203646,  1.407924, -0.148962 )     4.74095946
  WF centre and spread   36  (  4.210451,  4.210409,  0.164908 )     1.13229284
  WF centre and spread   37  (  4.211083,  4.192887,  0.148474 )     4.62081164
  WF centre and spread   38  (  4.197876,  4.211126,  0.140373 )     4.59832812
  WF centre and spread   39  (  1.403341,  4.210446,  3.806735 )     1.13174729
  WF centre and spread   40  (  1.397044,  4.206326,  3.808902 )     4.82020398
  WF centre and spread   41  (  1.395118,  4.205978,  3.818034 )     4.84551436
  WF centre and spread   42  (  1.403468,  1.403632,  4.132816 )     1.13343114
  WF centre and spread   43  (  1.398276,  1.411488,  4.135311 )     4.85429456
  WF centre and spread   44  (  1.401385,  1.401626,  4.126844 )     4.88748964
  WF centre and spread   45  (  0.005204,  0.202025,  1.945640 )     8.94265677
  WF centre and spread   46  ( -0.000022,  0.202362,  1.984817 )     1.09231505
  WF centre and spread   47  (  0.000056,  0.246053,  1.984967 )     1.13659285
  WF centre and spread   48  (  0.011502, -0.201217,  5.939300 )     8.93383399
  WF centre and spread   49  ( -0.000260, -0.202310,  5.954528 )     1.09275970
  WF centre and spread   50  ( -0.000045, -0.245843,  5.954347 )     1.13812002
  WF centre and spread   51  (  2.825540,  3.036492,  6.034521 )     8.94207417
  WF centre and spread   52  (  2.806957,  3.009206,  5.954382 )     1.08921204
  WF centre and spread   53  (  2.807022,  3.052564,  5.954288 )     1.13916472
  WF centre and spread   54  (  2.817930,  2.601895,  2.006910 )     9.00675599
  WF centre and spread   55  (  2.807227,  2.604700,  1.984850 )     1.08652417
  WF centre and spread   56  (  2.807070,  2.561301,  1.984924 )     1.13890097
  Sum of centres and spreads (112.486252,112.271752,135.086547 )   433.56257480

      1    -0.569E+02    12.5502336570      433.5625748023       0.09  <-- CONV
        O_D=     14.7071049 O_OD=    261.2778316 O_TOT=    433.5625748 <-- SPRD
 Delta: O_D=  0.7098891E+01 O_OD= -0.6395199E+02 O_TOT= -0.5685310E+02 <-- DLTA
 ------------------------------------------------------------------------------
 Cycle:    200
  WF centre and spread    1  ( -0.000154, -0.000867, -0.000105 )     1.38388506
  WF centre and spread    2  (  0.000186, -0.000359,  0.001183 )     1.38871175
  WF centre and spread    3  (  0.000263, -0.000698,  0.000378 )     1.32893543
  WF centre and spread    4  ( -0.000203, -0.000390,  3.969838 )     1.39284827
  WF centre and spread    5  ( -0.000258,  0.000415,  3.969463 )     1.39443786
  WF centre and spread    6  (  0.000395, -0.000403,  3.969762 )     1.32765298
  WF centre and spread    7  (  2.807415,  2.808136,  3.969541 )     1.39026174
  WF centre and spread    8  (  2.807150,  2.808507,  3.970022 )     1.38787581
  WF centre and spread    9  (  2.807698,  2.807628,  3.969289 )     1.32702501
  WF centre and spread   10  (  2.807854,  2.806968,  0.001850 )     1.38991653
  WF centre and spread   11  (  2.806946,  2.807005,  0.000039 )     1.38699594
  WF centre and spread   12  (  2.808030,  2.808158,  0.000732 )     1.32929481
  WF centre and spread   13  (  0.415442, -0.168541, -0.225168 )    27.14830670
  WF centre and spread   14  (  0.077019, -0.207237,  0.009786 )    21.26983197
  WF centre and spread   15  (  0.163344,  0.182879,  3.809267 )    28.14655965
  WF centre and spread   16  (  0.062645, -0.144379,  4.300166 )    31.76670950
  WF centre and spread   17  (  2.972475,  3.492547,  4.364473 )    21.93620646
  WF centre and spread   18  (  2.604836,  2.761375,  4.060972 )    26.02472252
  WF centre and spread   19  (  3.292544,  3.568125,  0.924152 )    23.25636886
  WF centre and spread   20  (  2.254484,  2.885831, -0.017100 )    22.08647561
  WF centre and spread   21  (  1.403558,  4.210191,  0.167592 )     1.06794887
  WF centre and spread   22  (  1.406449,  4.196847,  0.139934 )     1.37578821
  WF centre and spread   23  (  1.413649,  4.204730,  0.139354 )     1.38250608
  WF centre and spread   24  (  1.403847,  1.403458, -0.164545 )     1.07087859
  WF centre and spread   25  (  1.403836,  1.414819, -0.141656 )     1.38727948
  WF centre and spread   26  (  1.419266,  1.404471, -0.140491 )     1.37666126
  WF centre and spread   27  (  4.210794,  1.403547,  4.132817 )     1.07613527
  WF centre and spread   28  (  4.223488,  1.391167,  4.112055 )     1.36491326
  WF centre and spread   29  (  4.224676,  1.394757,  4.112129 )     1.36582808
  WF centre and spread   30  (  4.210427,  4.210620,  3.807707 )     1.08427243
  WF centre and spread   31  (  4.207891,  4.215763,  3.830954 )     1.35062781
  WF centre and spread   32  (  4.217857,  4.212460,  3.830263 )     1.35833776
  WF centre and spread   33  (  4.210410,  1.403429, -0.165473 )     1.06952640
  WF centre and spread   34  (  4.199479,  1.407579, -0.141001 )     1.37152307
  WF centre and spread   35  (  4.202320,  1.412598, -0.139756 )     1.38269605
  WF centre and spread   36  (  4.210666,  4.210154,  0.168294 )     1.07724783
  WF centre and spread   37  (  4.222465,  4.191551,  0.142268 )     1.40012198
  WF centre and spread   38  (  4.187750,  4.221485,  0.142965 )     1.39414904
  WF centre and spread   39  (  1.403681,  4.210847,  3.809089 )     1.08123585
  WF centre and spread   40  (  1.400920,  4.227926,  3.827260 )     1.35537209
  WF centre and spread   41  (  1.384815,  4.215066,  3.827623 )     1.36304875
  WF centre and spread   42  (  1.402904,  1.403483,  4.134094 )     1.07828764
  WF centre and spread   43  (  1.392834,  1.398402,  4.113639 )     1.37568225
  WF centre and spread   44  (  1.401448,  1.391840,  4.111837 )     1.36080307
  WF centre and spread   45  (  0.004714,  0.177894,  1.979209 )     1.80476108
  WF centre and spread   46  ( -0.001105,  0.204224,  1.984693 )     1.04298608
  WF centre and spread   47  ( -0.001484,  0.247881,  1.984489 )     1.06831609
  WF centre and spread   48  (  0.002105, -0.178937,  5.960681 )     1.78455972
  WF centre and spread   49  ( -0.000544, -0.202837,  5.954708 )     1.04697895
  WF centre and spread   50  ( -0.001517, -0.247746,  5.954302 )     1.07167130
  WF centre and spread   51  (  2.812031,  2.995650,  6.001837 )     1.78004445
  WF centre and spread   52  (  2.807404,  3.009814,  5.954321 )     1.03936586
  WF centre and spread   53  (  2.807127,  3.050730,  5.954283 )     1.06391830
  WF centre and spread   54  (  2.812860,  2.642017,  1.966045 )     1.79981941
  WF centre and spread   55  (  2.805580,  2.603771,  1.984927 )     1.04661739
  WF centre and spread   56  (  2.806445,  2.564513,  1.984705 )     1.06330276
  Sum of centres and spreads (112.907155,113.438865,136.369696 )   264.24623498

    200     0.441E-01     9.3438107665      264.2462349818      18.57  <-- CONV
        O_D=      3.5531734 O_OD=    103.1154232 O_TOT=    264.2462350 <-- SPRD
 Delta: O_D=  0.4395695E-01 O_OD=  0.1490437E-03 O_TOT=  0.4410600E-01 <-- DLTA
 ------------------------------------------------------------------------------
 Cycle:    400
  WF centre and spread    1  ( -0.000085, -0.000857, -0.000271 )     1.37736901
  WF centre and spread    2  (  0.000127, -0.000241,  0.001171 )     1.38194437
  WF centre and spread    3  (  0.000073, -0.000779,  0.000419 )     1.33025594
  WF centre and spread    4  ( -0.000240, -0.000438,  3.969778 )     1.38143729
  WF centre and spread    5  ( -0.000353,  0.000366,  3.969515 )     1.38349332
  WF centre and spread    6  (  0.000348, -0.000518,  3.969734 )     1.32823138
  WF centre and spread    7  (  2.807336,  2.808008,  3.969491 )     1.38122366
  WF centre and spread    8  (  2.807186,  2.808265,  3.970009 )     1.37881561
  WF centre and spread    9  (  2.807773,  2.807697,  3.969256 )     1.32814019
  WF centre and spread   10  (  2.807545,  2.806810,  0.001588 )     1.37949901
  WF centre and spread   11  (  2.807001,  2.806981, -0.000004 )     1.37707254
  WF centre and spread   12  (  2.808013,  2.808190,  0.000755 )     1.33025855
  WF centre and spread   13  (  0.398800, -0.155828, -0.211857 )    25.70164239
  WF centre and spread   14  (  0.102715, -0.208616,  0.010378 )    19.95135792
  WF centre and spread   15  (  0.141361,  0.252325,  3.785104 )    28.25448024
  WF centre and spread   16  (  0.096327, -0.160329,  4.301270 )    31.81660218
  WF centre and spread   17  (  3.026450,  3.480285,  4.269836 )    21.91834935
  WF centre and spread   18  (  2.657258,  2.779529,  4.045811 )    24.17679537
  WF centre and spread   19  (  3.414729,  3.659281,  1.004052 )    22.89715889
  WF centre and spread   20  (  2.066809,  2.874553,  0.019526 )    22.01915804
  WF centre and spread   21  (  1.403562,  4.210186,  0.166670 )     1.06385412
  WF centre and spread   22  (  1.408329,  4.195321,  0.140136 )     1.34263242
  WF centre and spread   23  (  1.415355,  4.202756,  0.139312 )     1.34679587
  WF centre and spread   24  (  1.403837,  1.403487, -0.164296 )     1.06775921
  WF centre and spread   25  (  1.406677,  1.416145, -0.141578 )     1.35872052
  WF centre and spread   26  (  1.419738,  1.408128, -0.140363 )     1.34775680
  WF centre and spread   27  (  4.210809,  1.403527,  4.132810 )     1.07499912
  WF centre and spread   28  (  4.225390,  1.389029,  4.111902 )     1.34173611
  WF centre and spread   29  (  4.225236,  1.392967,  4.111789 )     1.33077102
  WF centre and spread   30  (  4.210395,  4.210589,  3.808123 )     1.08208774
  WF centre and spread   31  (  4.208763,  4.216912,  3.830613 )     1.32686060
  WF centre and spread   32  (  4.219398,  4.213696,  3.829954 )     1.32208424
  WF centre and spread   33  (  4.210445,  1.403445, -0.165113 )     1.06627245
  WF centre and spread   34  (  4.198088,  1.408771, -0.141161 )     1.34718312
  WF centre and spread   35  (  4.201947,  1.414047, -0.140099 )     1.35286231
  WF centre and spread   36  (  4.210580,  4.210152,  0.167343 )     1.07284095
  WF centre and spread   37  (  4.219866,  4.191043,  0.142184 )     1.36664099
  WF centre and spread   38  (  4.188241,  4.217562,  0.142771 )     1.35829671
  WF centre and spread   39  (  1.403656,  4.210829,  3.809617 )     1.08101898
  WF centre and spread   40  (  1.398822,  4.228424,  3.827575 )     1.33211868
  WF centre and spread   41  (  1.384300,  4.216520,  3.827972 )     1.32894772
  WF centre and spread   42  (  1.402881,  1.403409,  4.133857 )     1.07642768
  WF centre and spread   43  (  1.391739,  1.397281,  4.113246 )     1.35521702
  WF centre and spread   44  (  1.399884,  1.391374,  4.111546 )     1.33004126
  WF centre and spread   45  (  0.004193,  0.177296,  1.983201 )     1.72773173
  WF centre and spread   46  ( -0.000795,  0.203975,  1.984769 )     1.04119439
  WF centre and spread   47  ( -0.001506,  0.247275,  1.984605 )     1.06504036
  WF centre and spread   48  (  0.002050, -0.178380,  5.957925 )     1.71424958
  WF centre and spread   49  ( -0.000397, -0.202561,  5.954737 )     1.04462929
  WF centre and spread   50  ( -0.001624, -0.247180,  5.954330 )     1.06749989
  WF centre and spread   51  (  2.811618,  2.993312,  6.000916 )     1.70984204
  WF centre and spread   52  (  2.807383,  3.009795,  5.954395 )     1.03915814
  WF centre and spread   53  (  2.807365,  3.050839,  5.954305 )     1.06360076
  WF centre and spread   54  (  2.813019,  2.640498,  1.961630 )     1.72361840
  WF centre and spread   55  (  2.805592,  2.603969,  1.984882 )     1.04649395
  WF centre and spread   56  (  2.806702,  2.564824,  1.984695 )     1.06338250
  Sum of centres and spreads (112.970708,113.583945,136.360765 )   258.47365191

    400    -0.359E-01     5.0607258825      258.4736519083      37.04  <-- CONV
        O_D=      3.3290194 O_OD=     97.5669942 O_TOT=    258.4736519 <-- SPRD
 Delta: O_D= -0.1526146E-01 O_OD= -0.2067139E-01 O_TOT= -0.3593285E-01 <-- DLTA
 ------------------------------------------------------------------------------
 Cycle:    600
  WF centre and spread    1  ( -0.000063, -0.000844, -0.000347 )     1.37465902
  WF centre and spread    2  (  0.000108, -0.000194,  0.001155 )     1.37892795
  WF centre and spread    3  ( -0.000040, -0.000798,  0.000424 )     1.33092555
  WF centre and spread    4  ( -0.000267, -0.000466,  3.969739 )     1.37660264
  WF centre and spread    5  ( -0.000383,  0.000342,  3.969560 )     1.37874841
  WF centre and spread    6  (  0.000298, -0.000564,  3.969721 )     1.32861655
  WF centre and spread    7  (  2.807285,  2.807950,  3.969489 )     1.37765782
  WF centre and spread    8  (  2.807206,  2.808149,  3.970026 )     1.37521233
  WF centre and spread    9  (  2.807816,  2.807716,  3.969249 )     1.32876253
  WF centre and spread   10  (  2.807394,  2.806753,  0.001440 )     1.37527164
  WF centre and spread   11  (  2.807030,  2.806971, -0.000008 )     1.37305143
  WF centre and spread   12  (  2.808012,  2.808203,  0.000751 )     1.33074056
  WF centre and spread   13  (  0.372063, -0.167745, -0.207096 )    25.22609327
  WF centre and spread   14  (  0.109274, -0.210721,  0.011757 )    19.35152920
  WF centre and spread   15  (  0.118276,  0.281214,  3.818490 )    28.30024087
  WF centre and spread   16  (  0.111080, -0.164093,  4.314612 )    31.98601666
  WF centre and spread   17  (  3.053078,  3.464460,  4.225766 )    21.92222870
  WF centre and spread   18  (  2.687767,  2.784240,  4.032929 )    23.26730179
  WF centre and spread   19  (  3.493083,  3.712515,  1.045495 )    22.69980898
  WF centre and spread   20  (  1.957984,  2.884214,  0.032513 )    21.95389721
  WF centre and spread   21  (  1.403559,  4.210191,  0.166262 )     1.06191065
  WF centre and spread   22  (  1.409504,  4.194520,  0.140328 )     1.32865557
  WF centre and spread   23  (  1.416328,  4.201637,  0.139366 )     1.33181562
  WF centre and spread   24  (  1.403819,  1.403501, -0.164210 )     1.06576284
  WF centre and spread   25  (  1.408461,  1.416982, -0.141587 )     1.34671601
  WF centre and spread   26  (  1.420033,  1.410174, -0.140322 )     1.33693015
  WF centre and spread   27  (  4.210813,  1.403529,  4.132849 )     1.07443684
  WF centre and spread   28  (  4.226415,  1.387869,  4.111827 )     1.33363189
  WF centre and spread   29  (  4.225730,  1.392069,  4.111684 )     1.32008372
  WF centre and spread   30  (  4.210384,  4.210576,  3.808273 )     1.08085624
  WF centre and spread   31  (  4.209468,  4.217746,  3.830467 )     1.31743847
  WF centre and spread   32  (  4.220422,  4.214408,  3.829842 )     1.31011588
  WF centre and spread   33  (  4.210453,  1.403456, -0.164895 )     1.06444836
  WF centre and spread   34  (  4.197293,  1.409632, -0.141211 )     1.33662823
  WF centre and spread   35  (  4.201561,  1.414812, -0.140215 )     1.34032907
  WF centre and spread   36  (  4.210526,  4.210151,  0.166859 )     1.07063734
  WF centre and spread   37  (  4.218270,  4.190735,  0.142106 )     1.35140227
  WF centre and spread   38  (  4.188430,  4.215416,  0.142637 )     1.34297938
  WF centre and spread   39  (  1.403640,  4.210816,  3.809879 )     1.08078014
  WF centre and spread   40  (  1.397507,  4.228869,  3.827691 )     1.32297549
  WF centre and spread   41  (  1.383795,  4.217465,  3.828117 )     1.31737644
  WF centre and spread   42  (  1.402885,  1.403380,  4.133721 )     1.07546014
  WF centre and spread   43  (  1.390978,  1.396684,  4.113116 )     1.35009387
  WF centre and spread   44  (  1.398928,  1.390951,  4.111449 )     1.32130685
  WF centre and spread   45  (  0.003816,  0.177033,  1.985799 )     1.69182213
  WF centre and spread   46  ( -0.000619,  0.203869,  1.984808 )     1.04027225
  WF centre and spread   47  ( -0.001502,  0.246962,  1.984657 )     1.06330495
  WF centre and spread   48  (  0.001923, -0.178215,  5.955989 )     1.67964386
  WF centre and spread   49  ( -0.000326, -0.202414,  5.954749 )     1.04351518
  WF centre and spread   50  ( -0.001680, -0.246889,  5.954345 )     1.06546743
  WF centre and spread   51  (  2.811419,  2.992316,  6.000668 )     1.68244893
  WF centre and spread   52  (  2.807377,  3.009803,  5.954406 )     1.03908889
  WF centre and spread   53  (  2.807486,  3.050873,  5.954324 )     1.06365179
  WF centre and spread   54  (  2.813065,  2.639736,  1.959224 )     1.69068343
  WF centre and spread   55  (  2.805622,  2.604073,  1.984872 )     1.04614618
  WF centre and spread   56  (  2.806862,  2.564950,  1.984715 )     1.06336915
  Sum of centres and spreads (112.969645,113.644967,136.408251 )   256.08847872

    600    -0.133E-01     4.5369469813      256.0884787235      55.64  <-- CONV
        O_D=      3.2542747 O_OD=     95.2565657 O_TOT=    256.0884787 <-- SPRD
 Delta: O_D= -0.2647926E-02 O_OD= -0.1061758E-01 O_TOT= -0.1326551E-01 <-- DLTA
 ------------------------------------------------------------------------------
 Cycle:    800
  WF centre and spread    1  ( -0.000047, -0.000825, -0.000407 )     1.37297082
  WF centre and spread    2  (  0.000093, -0.000155,  0.001136 )     1.37682960
  WF centre and spread    3  ( -0.000140, -0.000804,  0.000417 )     1.33158085
  WF centre and spread    4  ( -0.000285, -0.000495,  3.969697 )     1.37317658
  WF centre and spread    5  ( -0.000406,  0.000317,  3.969600 )     1.37527085
  WF centre and spread    6  (  0.000248, -0.000598,  3.969707 )     1.32900530
  WF centre and spread    7  (  2.807243,  2.807896,  3.969497 )     1.37545192
  WF centre and spread    8  (  2.807220,  2.808044,  3.970040 )     1.37301972
  WF centre and spread    9  (  2.807853,  2.807726,  3.969245 )     1.32931989
  WF centre and spread   10  (  2.807267,  2.806711,  0.001295 )     1.37233430
  WF centre and spread   11  (  2.807048,  2.806962, -0.000001 )     1.37024802
  WF centre and spread   12  (  2.808008,  2.808207,  0.000738 )     1.33118618
  WF centre and spread   13  (  0.345194, -0.182717, -0.203170 )    24.91055272
  WF centre and spread   14  (  0.112280, -0.210355,  0.012502 )    18.85814536
  WF centre and spread   15  (  0.093174,  0.308790,  3.813456 )    28.29272547
  WF centre and spread   16  (  0.115896, -0.164073,  4.305761 )    32.26743529
  WF centre and spread   17  (  3.075420,  3.449825,  4.187060 )    21.93188023
  WF centre and spread   18  (  2.701313,  2.792800,  4.019664 )    22.48628235
  WF centre and spread   19  (  3.568488,  3.757326,  1.082396 )    22.52550358
  WF centre and spread   20  (  1.858384,  2.875902,  0.042397 )    21.99406930
  WF centre and spread   21  (  1.403557,  4.210204,  0.165933 )     1.06070426
  WF centre and spread   22  (  1.410724,  4.193822,  0.140503 )     1.31788296
  WF centre and spread   23  (  1.417256,  4.200576,  0.139427 )     1.32061319
  WF centre and spread   24  (  1.403798,  1.403506, -0.164203 )     1.06461615
  WF centre and spread   25  (  1.410184,  1.417819, -0.141606 )     1.33762436
  WF centre and spread   26  (  1.420332,  1.412015, -0.140305 )     1.32945398
  WF centre and spread   27  (  4.210816,  1.403537,  4.132901 )     1.07417870
  WF centre and spread   28  (  4.227484,  1.386631,  4.111746 )     1.33156591
  WF centre and spread   29  (  4.226388,  1.391050,  4.111577 )     1.31588925
  WF centre and spread   30  (  4.210373,  4.210559,  3.808370 )     1.07994551
  WF centre and spread   31  (  4.210335,  4.218913,  3.830381 )     1.31312874
  WF centre and spread   32  (  4.221531,  4.215263,  3.829773 )     1.30347939
  WF centre and spread   33  (  4.210462,  1.403468, -0.164686 )     1.06329767
  WF centre and spread   34  (  4.196538,  1.410519, -0.141245 )     1.32818387
  WF centre and spread   35  (  4.201094,  1.415502, -0.140309 )     1.33117412
  WF centre and spread   36  (  4.210475,  4.210144,  0.166401 )     1.06966107
  WF centre and spread   37  (  4.216739,  4.190472,  0.142034 )     1.33885759
  WF centre and spread   38  (  4.188593,  4.213480,  0.142492 )     1.33096390
  WF centre and spread   39  (  1.403623,  4.210810,  3.810061 )     1.08094924
  WF centre and spread   40  (  1.395975,  4.229723,  3.827759 )     1.31966686
  WF centre and spread   41  (  1.383053,  4.218696,  3.828206 )     1.31129288
  WF centre and spread   42  (  1.402891,  1.403352,  4.133607 )     1.07468880
  WF centre and spread   43  (  1.390173,  1.395839,  4.113048 )     1.35131010
  WF centre and spread   44  (  1.397894,  1.390372,  4.111399 )     1.31773892
  WF centre and spread   45  (  0.003482,  0.176799,  1.988182 )     1.66058237
  WF centre and spread   46  ( -0.000473,  0.203788,  1.984838 )     1.04005780
  WF centre and spread   47  ( -0.001492,  0.246689,  1.984696 )     1.06182309
  WF centre and spread   48  (  0.001753, -0.178140,  5.953853 )     1.65074509
  WF centre and spread   49  ( -0.000276, -0.202281,  5.954757 )     1.04314438
  WF centre and spread   50  ( -0.001735, -0.246622,  5.954354 )     1.06376791
  WF centre and spread   51  (  2.811209,  2.991510,  6.000446 )     1.66039726
  WF centre and spread   52  (  2.807380,  3.009828,  5.954401 )     1.03933038
  WF centre and spread   53  (  2.807592,  3.050866,  5.954339 )     1.06368521
  WF centre and spread   54  (  2.813041,  2.638980,  1.957058 )     1.66460403
  WF centre and spread   55  (  2.805674,  2.604165,  1.984876 )     1.04610344
  WF centre and spread   56  (  2.807026,  2.565039,  1.984731 )     1.06324703
  Sum of centres and spreads (112.937720,113.687380,136.390827 )   254.40134373

    800    -0.442E-01    10.4931338180      254.4013437293      74.04  <-- CONV
        O_D=      3.3139062 O_OD=     93.5097992 O_TOT=    254.4013437 <-- SPRD
 Delta: O_D= -0.4182569E-01 O_OD= -0.2355503E-02 O_TOT= -0.4418120E-01 <-- DLTA
 ------------------------------------------------------------------------------
 Cycle:   1000
  WF centre and spread    1  ( -0.000032, -0.000802, -0.000457 )     1.37111799
  WF centre and spread    2  (  0.000090, -0.000131,  0.001105 )     1.37468705
  WF centre and spread    3  ( -0.000235, -0.000804,  0.000403 )     1.33203212
  WF centre and spread    4  ( -0.000294, -0.000514,  3.969662 )     1.37026266
  WF centre and spread    5  ( -0.000417,  0.000297,  3.969640 )     1.37228714
  WF centre and spread    6  (  0.000197, -0.000618,  3.969695 )     1.32932988
  WF centre and spread    7  (  2.807200,  2.807838,  3.969514 )     1.37296105
  WF centre and spread    8  (  2.807233,  2.807946,  3.970050 )     1.37067518
  WF centre and spread    9  (  2.807881,  2.807729,  3.969247 )     1.32981022
  WF centre and spread   10  (  2.807158,  2.806684,  0.001145 )     1.36962430
  WF centre and spread   11  (  2.807069,  2.806957,  0.000007 )     1.36773603
  WF centre and spread   12  (  2.808001,  2.808207,  0.000722 )     1.33147203
  WF centre and spread   13  (  0.319891, -0.191910, -0.199670 )    24.61571839
  WF centre and spread   14  (  0.110918, -0.208022,  0.013054 )    18.38871882
  WF centre and spread   15  (  0.075367,  0.323822,  3.807626 )    28.23566512
  WF centre and spread   16  (  0.117875, -0.167823,  4.326692 )    32.65803108
  WF centre and spread   17  (  3.094923,  3.430100,  4.155128 )    21.93157139
  WF centre and spread   18  (  2.725067,  2.801052,  4.021107 )    21.68449148
  WF centre and spread   19  (  3.640464,  3.796295,  1.119114 )    22.36041512
  WF centre and spread   20  (  1.765551,  2.914486,  0.057886 )    21.92315793
  WF centre and spread   21  (  1.403557,  4.210217,  0.165662 )     1.05934143
  WF centre and spread   22  (  1.412011,  4.193151,  0.140647 )     1.30813128
  WF centre and spread   23  (  1.418223,  4.199501,  0.139479 )     1.31024559
  WF centre and spread   24  (  1.403774,  1.403510, -0.164227 )     1.06371484
  WF centre and spread   25  (  1.411939,  1.418681, -0.141631 )     1.32978619
  WF centre and spread   26  (  1.420713,  1.413802, -0.140301 )     1.32304008
  WF centre and spread   27  (  4.210817,  1.403542,  4.132944 )     1.07384307
  WF centre and spread   28  (  4.228421,  1.385543,  4.111670 )     1.32695210
  WF centre and spread   29  (  4.226937,  1.390193,  4.111527 )     1.30968753
  WF centre and spread   30  (  4.210365,  4.210543,  3.808427 )     1.07871482
  WF centre and spread   31  (  4.211190,  4.219797,  3.830261 )     1.30611043
  WF centre and spread   32  (  4.222440,  4.215992,  3.829680 )     1.29563063
  WF centre and spread   33  (  4.210472,  1.403480, -0.164468 )     1.06206663
  WF centre and spread   34  (  4.195780,  1.411438, -0.141275 )     1.32084802
  WF centre and spread   35  (  4.200554,  1.416160, -0.140385 )     1.32277290
  WF centre and spread   36  (  4.210435,  4.210137,  0.165962 )     1.06821617
  WF centre and spread   37  (  4.215147,  4.190174,  0.141958 )     1.32760110
  WF centre and spread   38  (  4.188666,  4.211607,  0.142356 )     1.32049440
  WF centre and spread   39  (  1.403604,  4.210807,  3.810211 )     1.08046522
  WF centre and spread   40  (  1.394800,  4.230218,  3.827784 )     1.31388451
  WF centre and spread   41  (  1.382681,  4.219590,  3.828276 )     1.30400748
  WF centre and spread   42  (  1.402899,  1.403326,  4.133493 )     1.07407535
  WF centre and spread   43  (  1.389504,  1.395153,  4.112961 )     1.34986437
  WF centre and spread   44  (  1.396996,  1.389857,  4.111332 )     1.31290341
  WF centre and spread   45  (  0.003217,  0.176697,  1.990320 )     1.63708796
  WF centre and spread   46  ( -0.000310,  0.203723,  1.984860 )     1.03918532
  WF centre and spread   47  ( -0.001473,  0.246422,  1.984722 )     1.06044003
  WF centre and spread   48  (  0.001609, -0.178104,  5.951894 )     1.62845146
  WF centre and spread   49  ( -0.000194, -0.202162,  5.954761 )     1.04233857
  WF centre and spread   50  ( -0.001775, -0.246364,  5.954367 )     1.06220792
  WF centre and spread   51  (  2.811026,  2.990839,  6.000434 )     1.64343138
  WF centre and spread   52  (  2.807396,  3.009846,  5.954391 )     1.03910155
  WF centre and spread   53  (  2.807678,  3.050877,  5.954353 )     1.06393260
  WF centre and spread   54  (  2.812945,  2.638262,  1.954856 )     1.64349729
  WF centre and spread   55  (  2.805723,  2.604264,  1.984879 )     1.04562032
  WF centre and spread   56  (  2.807187,  2.565104,  1.984743 )     1.06327897
  Sum of centres and spreads (112.918864,113.756611,136.428590 )   252.70073591

   1000    -0.344E-01     7.2251746084      252.7007359078      92.31  <-- CONV
        O_D=      3.1633974 O_OD=     91.9597002 O_TOT=    252.7007359 <-- SPRD
 Delta: O_D= -0.2619694E-01 O_OD= -0.8211526E-02 O_TOT= -0.3440847E-01 <-- DLTA
 ------------------------------------------------------------------------------
 Cycle:   1200
  WF centre and spread    1  ( -0.000006, -0.000774, -0.000509 )     1.37032922
  WF centre and spread    2  (  0.000090, -0.000118,  0.001066 )     1.37327369
  WF centre and spread    3  ( -0.000334, -0.000796,  0.000380 )     1.33261077
  WF centre and spread    4  ( -0.000292, -0.000524,  3.969626 )     1.36803970
  WF centre and spread    5  ( -0.000420,  0.000266,  3.969693 )     1.37001894
  WF centre and spread    6  (  0.000137, -0.000625,  3.969684 )     1.32974438
  WF centre and spread    7  (  2.807152,  2.807779,  3.969550 )     1.37175983
  WF centre and spread    8  (  2.807255,  2.807832,  3.970068 )     1.36949451
  WF centre and spread    9  (  2.807903,  2.807724,  3.969262 )     1.33036138
  WF centre and spread   10  (  2.807044,  2.806681,  0.000968 )     1.36781718
  WF centre and spread   11  (  2.807088,  2.806949,  0.000013 )     1.36612567
  WF centre and spread   12  (  2.807984,  2.808203,  0.000701 )     1.33187082
  WF centre and spread   13  (  0.297056, -0.194725, -0.195125 )    24.33303434
  WF centre and spread   14  (  0.104252, -0.203327,  0.012636 )    17.90709250
  WF centre and spread   15  (  0.048789,  0.335335,  3.815826 )    28.11314747
  WF centre and spread   16  (  0.122756, -0.182743,  4.348330 )    33.07216732
  WF centre and spread   17  (  3.115088,  3.403044,  4.119465 )    21.96493668
  WF centre and spread   18  (  2.746480,  2.791486,  4.025421 )    20.87666629
  WF centre and spread   19  (  3.722323,  3.837152,  1.159670 )    22.19813517
  WF centre and spread   20  (  1.660132,  2.943494,  0.079805 )    21.97214115
  WF centre and spread   21  (  1.403563,  4.210252,  0.165450 )     1.05837603
  WF centre and spread   22  (  1.413655,  4.192362,  0.140788 )     1.29845456
  WF centre and spread   23  (  1.419414,  4.198136,  0.139551 )     1.30168426
  WF centre and spread   24  (  1.403745,  1.403503, -0.164273 )     1.06237385
  WF centre and spread   25  (  1.414111,  1.419747, -0.141666 )     1.32308288
  WF centre and spread   26  (  1.421241,  1.415872, -0.140352 )     1.31937713
  WF centre and spread   27  (  4.210817,  1.403545,  4.132980 )     1.07363726
  WF centre and spread   28  (  4.229536,  1.384291,  4.111593 )     1.32280644
  WF centre and spread   29  (  4.227595,  1.389248,  4.111481 )     1.30740451
  WF centre and spread   30  (  4.210354,  4.210532,  3.808409 )     1.07832987
  WF centre and spread   31  (  4.212399,  4.220979,  3.830154 )     1.30003717
  WF centre and spread   32  (  4.223550,  4.216835,  3.829588 )     1.29229097
  WF centre and spread   33  (  4.210478,  1.403492, -0.164255 )     1.06086498
  WF centre and spread   34  (  4.194859,  1.412581, -0.141313 )     1.31378086
  WF centre and spread   35  (  4.199827,  1.416892, -0.140485 )     1.31617511
  WF centre and spread   36  (  4.210390,  4.210131,  0.165523 )     1.06745067
  WF centre and spread   37  (  4.213194,  4.189811,  0.141853 )     1.31667744
  WF centre and spread   38  (  4.188710,  4.209437,  0.142195 )     1.31223359
  WF centre and spread   39  (  1.403581,  4.210809,  3.810303 )     1.08113673
  WF centre and spread   40  (  1.393333,  4.230957,  3.827776 )     1.30978853
  WF centre and spread   41  (  1.382133,  4.220669,  3.828315 )     1.30003962
  WF centre and spread   42  (  1.402907,  1.403301,  4.133312 )     1.07338123
  WF centre and spread   43  (  1.388662,  1.394320,  4.112896 )     1.34918932
  WF centre and spread   44  (  1.395925,  1.389240,  4.111288 )     1.31261472
  WF centre and spread   45  (  0.002987,  0.176687,  1.992808 )     1.61534026
  WF centre and spread   46  ( -0.000134,  0.203675,  1.984883 )     1.03930869
  WF centre and spread   47  ( -0.001430,  0.246128,  1.984745 )     1.05900739
  WF centre and spread   48  (  0.001455, -0.178128,  5.949507 )     1.60719375
  WF centre and spread   49  ( -0.000079, -0.202028,  5.954781 )     1.04254651
  WF centre and spread   50  ( -0.001810, -0.246043,  5.954392 )     1.06065322
  WF centre and spread   51  (  2.810799,  2.990150,  6.000332 )     1.62636664
  WF centre and spread   52  (  2.807409,  3.009890,  5.954384 )     1.03984966
  WF centre and spread   53  (  2.807761,  3.050905,  5.954377 )     1.06462634
  WF centre and spread   54  (  2.812759,  2.637396,  1.952320 )     1.62239783
  WF centre and spread   55  (  2.805823,  2.604377,  1.984893 )     1.04599672
  WF centre and spread   56  (  2.807381,  2.565170,  1.984749 )     1.06353085
  Sum of centres and spreads (112.887375,113.787431,136.489813 )   251.15677264

   1200    -0.933E-02     4.1169451672      251.1567726362     111.01  <-- CONV
        O_D=      3.1209273 O_OD=     90.4582070 O_TOT=    251.1567726 <-- SPRD
 Delta: O_D= -0.4005205E-02 O_OD= -0.5325618E-02 O_TOT= -0.9330823E-02 <-- DLTA
 ------------------------------------------------------------------------------
 Cycle:   1400
  WF centre and spread    1  (  0.000010, -0.000749, -0.000539 )     1.36922981
  WF centre and spread    2  (  0.000090, -0.000112,  0.001018 )     1.37206773
  WF centre and spread    3  ( -0.000396, -0.000786,  0.000363 )     1.33289384
  WF centre and spread    4  ( -0.000282, -0.000523,  3.969607 )     1.36650326
  WF centre and spread    5  ( -0.000417,  0.000246,  3.969717 )     1.36859042
  WF centre and spread    6  (  0.000100, -0.000625,  3.969675 )     1.32995082
  WF centre and spread    7  (  2.807129,  2.807741,  3.969564 )     1.37028043
  WF centre and spread    8  (  2.807269,  2.807763,  3.970062 )     1.36826644
  WF centre and spread    9  (  2.807913,  2.807715,  3.969273 )     1.33063082
  WF centre and spread   10  (  2.806983,  2.806685,  0.000849 )     1.36634711
  WF centre and spread   11  (  2.807105,  2.806940,  0.000015 )     1.36498076
  WF centre and spread   12  (  2.807970,  2.808194,  0.000687 )     1.33199926
  WF centre and spread   13  (  0.272794, -0.204096, -0.192403 )    24.11879579
  WF centre and spread   14  (  0.097236, -0.198060,  0.012613 )    17.56008483
  WF centre and spread   15  (  0.032014,  0.345727,  3.828531 )    28.05499636
  WF centre and spread   16  (  0.118128, -0.190854,  4.357521 )    33.45755235
  WF centre and spread   17  (  3.126854,  3.383851,  4.097163 )    21.97126234
  WF centre and spread   18  (  2.757904,  2.801423,  4.012660 )    20.30513343
  WF centre and spread   19  (  3.772901,  3.858925,  1.190393 )    22.08174175
  WF centre and spread   20  (  1.592000,  2.973053,  0.090689 )    21.95011582
  WF centre and spread   21  (  1.403566,  4.210269,  0.165276 )     1.05767281
  WF centre and spread   22  (  1.414812,  4.191833,  0.140866 )     1.29271209
  WF centre and spread   23  (  1.420233,  4.197203,  0.139587 )     1.29565432
  WF centre and spread   24  (  1.403724,  1.403500, -0.164327 )     1.06190430
  WF centre and spread   25  (  1.415496,  1.420412, -0.141636 )     1.31758585
  WF centre and spread   26  (  1.421622,  1.417137, -0.140371 )     1.31594531
  WF centre and spread   27  (  4.210817,  1.403548,  4.133008 )     1.07356373
  WF centre and spread   28  (  4.230118,  1.383637,  4.111542 )     1.31862127
  WF centre and spread   29  (  4.227943,  1.388735,  4.111461 )     1.30397838
  WF centre and spread   30  (  4.210349,  4.210520,  3.808384 )     1.07726537
  WF centre and spread   31  (  4.213185,  4.221677,  3.830092 )     1.29477711
  WF centre and spread   32  (  4.224223,  4.217394,  3.829517 )     1.28806168
  WF centre and spread   33  (  4.210480,  1.403497, -0.164115 )     1.06015869
  WF centre and spread   34  (  4.194239,  1.413366, -0.141335 )     1.30951212
  WF centre and spread   35  (  4.199296,  1.417403, -0.140549 )     1.31145804
  WF centre and spread   36  (  4.210371,  4.210129,  0.165216 )     1.06643373
  WF centre and spread   37  (  4.211911,  4.189589,  0.141785 )     1.30930594
  WF centre and spread   38  (  4.188689,  4.208090,  0.142086 )     1.30562567
  WF centre and spread   39  (  1.403565,  4.210810,  3.810361 )     1.08079171
  WF centre and spread   40  (  1.392528,  4.231295,  3.827747 )     1.30569475
  WF centre and spread   41  (  1.381903,  4.221293,  3.828332 )     1.29604412
  WF centre and spread   42  (  1.402914,  1.403283,  4.133180 )     1.07295813
  WF centre and spread   43  (  1.388191,  1.393872,  4.112831 )     1.34720087
  WF centre and spread   44  (  1.395233,  1.388846,  4.111263 )     1.31013179
  WF centre and spread   45  (  0.002831,  0.176681,  1.994300 )     1.60325096
  WF centre and spread   46  ( -0.000007,  0.203655,  1.984895 )     1.03873895
  WF centre and spread   47  ( -0.001393,  0.245958,  1.984749 )     1.05815612
  WF centre and spread   48  (  0.001347, -0.178155,  5.948108 )     1.59414040
  WF centre and spread   49  (  0.000005, -0.201940,  5.954780 )     1.04201904
  WF centre and spread   50  ( -0.001818, -0.245832,  5.954404 )     1.05953758
  WF centre and spread   51  (  2.810671,  2.989783,  6.000277 )     1.61695700
  WF centre and spread   52  (  2.807423,  3.009900,  5.954367 )     1.03956154
  WF centre and spread   53  (  2.807798,  3.050923,  5.954390 )     1.06450092
  WF centre and spread   54  (  2.812600,  2.636848,  1.950656 )     1.61035555
  WF centre and spread   55  (  2.805893,  2.604458,  1.984893 )     1.04565338
  WF centre and spread   56  (  2.807507,  2.565212,  1.984752 )     1.06359327
  Sum of centres and spreads (112.841569,113.827286,136.518230 )   250.08094584

   1400    -0.459E-01    10.8591805445      250.0809458366     129.33  <-- CONV
        O_D=      3.0678186 O_OD=     89.4354889 O_TOT=    250.0809458 <-- SPRD
 Delta: O_D= -0.4194876E-01 O_OD= -0.3910176E-02 O_TOT= -0.4585894E-01 <-- DLTA
 ------------------------------------------------------------------------------
 Cycle:   1600
  WF centre and spread    1  (  0.000035, -0.000715, -0.000575 )     1.36789838
  WF centre and spread    2  (  0.000081, -0.000109,  0.000964 )     1.37048949
  WF centre and spread    3  ( -0.000462, -0.000777,  0.000342 )     1.33326244
  WF centre and spread    4  ( -0.000261, -0.000520,  3.969593 )     1.36479272
  WF centre and spread    5  ( -0.000414,  0.000219,  3.969764 )     1.36671825
  WF centre and spread    6  (  0.000043, -0.000618,  3.969662 )     1.33011298
  WF centre and spread    7  (  2.807096,  2.807693,  3.969602 )     1.36838297
  WF centre and spread    8  (  2.807279,  2.807679,  3.970052 )     1.36667387
  WF centre and spread    9  (  2.807921,  2.807704,  3.969288 )     1.33088783
  WF centre and spread   10  (  2.806911,  2.806692,  0.000708 )     1.36454271
  WF centre and spread   11  (  2.807120,  2.806931,  0.000016 )     1.36346644
  WF centre and spread   12  (  2.807940,  2.808177,  0.000670 )     1.33213772
  WF centre and spread   13  (  0.253273, -0.209359, -0.188499 )    23.87159388
  WF centre and spread   14  (  0.086420, -0.186446,  0.013250 )    17.12646196
  WF centre and spread   15  (  0.014341,  0.343999,  3.818047 )    27.93842179
  WF centre and spread   16  (  0.102283, -0.203022,  4.373325 )    33.95247814
  WF centre and spread   17  (  3.140167,  3.358504,  4.071699 )    21.97684053
  WF centre and spread   18  (  2.773683,  2.809590,  4.004262 )    19.70636070
  WF centre and spread   19  (  3.835025,  3.884791,  1.227419 )    21.93632060
  WF centre and spread   20  (  1.494814,  2.987004,  0.101624 )    21.90318802
  WF centre and spread   21  (  1.403580,  4.210298,  0.165076 )     1.05725051
  WF centre and spread   22  (  1.416324,  4.191171,  0.140950 )     1.28689045
  WF centre and spread   23  (  1.421259,  4.196013,  0.139655 )     1.28958735
  WF centre and spread   24  (  1.403701,  1.403489, -0.164431 )     1.06188672
  WF centre and spread   25  (  1.417307,  1.421323, -0.141635 )     1.31329716
  WF centre and spread   26  (  1.422214,  1.418812, -0.140420 )     1.31286590
  WF centre and spread   27  (  4.210815,  1.403560,  4.133024 )     1.07397311
  WF centre and spread   28  (  4.230897,  1.382684,  4.111471 )     1.31447989
  WF centre and spread   29  (  4.228465,  1.388023,  4.111412 )     1.30064409
  WF centre and spread   30  (  4.210342,  4.210511,  3.808376 )     1.07610578
  WF centre and spread   31  (  4.214317,  4.222769,  3.830003 )     1.28867588
  WF centre and spread   32  (  4.225146,  4.218198,  3.829432 )     1.28313932
[...]
  WF centre and spread   13  (  0.105127,  0.036685, -0.026662 )    19.94831459
  WF centre and spread   14  (  0.015600, -0.035504, -0.000249 )    12.38260128
  WF centre and spread   15  (  0.288908,  0.223143,  4.188944 )    26.01284799
  WF centre and spread   16  ( -1.052256, -1.878890,  5.725378 )    34.57936890
  WF centre and spread   17  (  2.888047,  2.863240,  3.936697 )    20.20703218
  WF centre and spread   18  (  2.851837,  2.792295,  3.973219 )    12.07687176
  WF centre and spread   19  (  3.794511,  4.504107,  2.023682 )    19.58122510
  WF centre and spread   20  (  0.565845,  3.350217,  0.515422 )    21.40164837
  WF centre and spread   21  (  1.403554,  4.210453,  0.160940 )     1.04808316
  WF centre and spread   22  (  1.435804,  4.175428,  0.142345 )     1.31819507
  WF centre and spread   23  (  1.439017,  4.174673,  0.141252 )     1.30979352
  WF centre and spread   24  (  1.403496,  1.403521, -0.165438 )     1.05338340
  WF centre and spread   25  (  1.436069,  1.437840, -0.142145 )     1.32785457
  WF centre and spread   26  (  1.437890,  1.440223, -0.141335 )     1.32815123
  WF centre and spread   27  (  4.210600,  1.403508,  4.133509 )     1.06923717
  WF centre and spread   28  (  4.244873,  1.367048,  4.111101 )     1.31865435
  WF centre and spread   29  (  4.247326,  1.368030,  4.111350 )     1.32481398
  WF centre and spread   30  (  4.210413,  4.210538,  3.808602 )     1.06716275
  WF centre and spread   31  (  4.245389,  4.245830,  3.828377 )     1.30511349
  WF centre and spread   32  (  4.248350,  4.242420,  3.828004 )     1.30008449
  WF centre and spread   33  (  4.210511,  1.403478, -0.165455 )     1.04919682
  WF centre and spread   34  (  4.179538,  1.435987, -0.141963 )     1.31624741
  WF centre and spread   35  (  4.178691,  1.432356, -0.141812 )     1.31374645
  WF centre and spread   36  (  4.210224,  4.210515,  0.160271 )     1.05378514
  WF centre and spread   37  (  4.183361,  4.179034,  0.141988 )     1.28875774
  WF centre and spread   38  (  4.179754,  4.178438,  0.141778 )     1.28836771
  WF centre and spread   39  (  1.403381,  4.210713,  3.809973 )     1.07385930
  WF centre and spread   40  (  1.372204,  4.242297,  3.827424 )     1.31877912
  WF centre and spread   41  (  1.370708,  4.241307,  3.827928 )     1.30504303
  WF centre and spread   42  (  1.403251,  1.403282,  4.132065 )     1.06721988
  WF centre and spread   43  (  1.370997,  1.372464,  4.111848 )     1.33118705
  WF centre and spread   44  (  1.370798,  1.372099,  4.111448 )     1.32259610
  WF centre and spread   45  (  0.001035,  0.179595,  2.031287 )     1.50438870
  WF centre and spread   46  (  0.001247,  0.202262,  1.984214 )     1.03617542
  WF centre and spread   47  ( -0.000224,  0.244106,  1.984637 )     1.05041972
  WF centre and spread   48  (  0.000980, -0.179915,  5.906093 )     1.50609098
  WF centre and spread   49  ( -0.000251, -0.202057,  5.955109 )     1.03766425
  WF centre and spread   50  ( -0.001197, -0.243530,  5.954673 )     1.05253108
  WF centre and spread   51  (  2.807781,  2.987407,  6.003798 )     1.51136940
  WF centre and spread   52  (  2.807685,  3.009644,  5.953970 )     1.03696263
  WF centre and spread   53  (  2.806876,  3.051910,  5.954491 )     1.05919124
  WF centre and spread   54  (  2.808089,  2.627441,  1.933228 )     1.51074652
  WF centre and spread   55  (  2.807052,  2.605521,  1.985160 )     1.03529621
  WF centre and spread   56  (  2.808602,  2.564343,  1.985000 )     1.05908301
  Sum of centres and spreads (110.544978,112.904287,139.419444 )   226.38185510

   9600    -0.151E-01     4.6455604954      226.3818551049     885.37  <-- CONV
        O_D=      0.7732285 O_OD=     68.0309883 O_TOT=    226.3818551 <-- SPRD
 Delta: O_D= -0.7215974E-02 O_OD= -0.7846897E-02 O_TOT= -0.1506287E-01 <-- DLTA
 ------------------------------------------------------------------------------
 Cycle:   9800
  WF centre and spread    1  (  0.000025, -0.000113,  0.000069 )     1.37029609
  WF centre and spread    2  (  0.000086, -0.000067,  0.000023 )     1.36952753
  WF centre and spread    3  ( -0.000486, -0.001054,  0.000522 )     1.33893849
  WF centre and spread    4  (  0.000116, -0.000129,  3.969898 )     1.37115238
  WF centre and spread    5  ( -0.000173,  0.000042,  3.970057 )     1.36930137
  WF centre and spread    6  ( -0.000470, -0.000852,  3.969172 )     1.33534922
  WF centre and spread    7  (  2.806854,  2.807248,  3.969957 )     1.37199928
  WF centre and spread    8  (  2.807204,  2.806861,  3.969727 )     1.37165368
  WF centre and spread    9  (  2.808273,  2.807447,  3.969497 )     1.33754575
  WF centre and spread   10  (  2.806778,  2.807048, -0.000022 )     1.37350907
  WF centre and spread   11  (  2.807103,  2.806803,  0.000176 )     1.36910364
  WF centre and spread   12  (  2.808113,  2.807471,  0.000197 )     1.33553787
  WF centre and spread   13  (  0.095894,  0.032895, -0.021300 )    19.94654136
  WF centre and spread   14  (  0.014504, -0.035649, -0.000701 )    12.37824331
  WF centre and spread   15  (  0.255335,  0.231496,  4.202196 )    25.86377248
  WF centre and spread   16  ( -1.045405, -1.898645,  5.687872 )    34.66991987
  WF centre and spread   17  (  2.882926,  2.856074,  3.942027 )    20.25963224
  WF centre and spread   18  (  2.848842,  2.792053,  3.972922 )    12.07516162
  WF centre and spread   19  (  3.776452,  4.520154,  2.021488 )    19.58426918
  WF centre and spread   20  (  0.558317,  3.336352,  0.522448 )    21.50576034
  WF centre and spread   21  (  1.403547,  4.210464,  0.160851 )     1.04916895
  WF centre and spread   22  (  1.435961,  4.175212,  0.142372 )     1.31931233
  WF centre and spread   23  (  1.439170,  4.174423,  0.141259 )     1.31128569
  WF centre and spread   24  (  1.403504,  1.403522, -0.165401 )     1.05695087
  WF centre and spread   25  (  1.436029,  1.437921, -0.142152 )     1.32991532
  WF centre and spread   26  (  1.437952,  1.440301, -0.141342 )     1.32930988
  WF centre and spread   27  (  4.210582,  1.403510,  4.133437 )     1.07349777
  WF centre and spread   28  (  4.244983,  1.366969,  4.111113 )     1.32067150
  WF centre and spread   29  (  4.247504,  1.367975,  4.111364 )     1.32650686
  WF centre and spread   30  (  4.210421,  4.210530,  3.808829 )     1.06892741
  WF centre and spread   31  (  4.245691,  4.245800,  3.828349 )     1.30658423
  WF centre and spread   32  (  4.248522,  4.242484,  3.827960 )     1.30172456
  WF centre and spread   33  (  4.210505,  1.403471, -0.165551 )     1.04983580
  WF centre and spread   34  (  4.179421,  1.436157, -0.141982 )     1.31714851
  WF centre and spread   35  (  4.178469,  1.432672, -0.141827 )     1.31535228
  WF centre and spread   36  (  4.210228,  4.210512,  0.160259 )     1.05735287
  WF centre and spread   37  (  4.183179,  4.178707,  0.142012 )     1.29068368
  WF centre and spread   38  (  4.179638,  4.178003,  0.141777 )     1.29008288
  WF centre and spread   39  (  1.403397,  4.210689,  3.809921 )     1.07773209
  WF centre and spread   40  (  1.371941,  4.242426,  3.827422 )     1.31990488
  WF centre and spread   41  (  1.370489,  4.241457,  3.827924 )     1.30637343
  WF centre and spread   42  (  1.403241,  1.403294,  4.131859 )     1.06936792
  WF centre and spread   43  (  1.370726,  1.372256,  4.111866 )     1.33195744
  WF centre and spread   44  (  1.370523,  1.371920,  4.111477 )     1.32374344
  WF centre and spread   45  (  0.001011,  0.179654,  2.031364 )     1.50597652
  WF centre and spread   46  (  0.001228,  0.202222,  1.984201 )     1.03664218
  WF centre and spread   47  ( -0.000229,  0.244090,  1.984635 )     1.05041485
  WF centre and spread   48  (  0.000866, -0.179983,  5.905964 )     1.50754829
  WF centre and spread   49  ( -0.000306, -0.202059,  5.955121 )     1.03841139
  WF centre and spread   50  ( -0.001231, -0.243576,  5.954677 )     1.05302791
  WF centre and spread   51  (  2.807638,  2.987319,  6.003787 )     1.51054738
  WF centre and spread   52  (  2.807622,  3.009587,  5.953984 )     1.03773314
  WF centre and spread   53  (  2.806821,  3.051881,  5.954493 )     1.06003515
  WF centre and spread   54  (  2.808078,  2.627378,  1.933474 )     1.51051794
  WF centre and spread   55  (  2.807049,  2.605532,  1.985173 )     1.03585488
  WF centre and spread   56  (  2.808628,  2.564324,  1.985011 )     1.05922659
  Sum of centres and spreads (110.473084,112.882476,139.409904 )   226.54654156

   9800    -0.113E-01     3.4599843264      226.5465415589     903.78  <-- CONV
        O_D=      0.6696752 O_OD=     68.2992280 O_TOT=    226.5465416 <-- SPRD
 Delta: O_D=  0.1731268E-03 O_OD= -0.1147830E-01 O_TOT= -0.1130518E-01 <-- DLTA
 ------------------------------------------------------------------------------
 Cycle:  10000
  WF centre and spread    1  (  0.000048, -0.000100,  0.000046 )     1.36712442
  WF centre and spread    2  (  0.000080, -0.000069,  0.000035 )     1.36701895
  WF centre and spread    3  ( -0.000491, -0.001072,  0.000529 )     1.33789219
  WF centre and spread    4  (  0.000123, -0.000129,  3.969923 )     1.36860553
  WF centre and spread    5  ( -0.000174,  0.000037,  3.970042 )     1.36708775
  WF centre and spread    6  ( -0.000464, -0.000878,  3.969162 )     1.33468576
  WF centre and spread    7  (  2.806867,  2.807254,  3.969978 )     1.36873242
  WF centre and spread    8  (  2.807209,  2.806844,  3.969709 )     1.36922595
  WF centre and spread    9  (  2.808277,  2.807431,  3.969496 )     1.33688732
  WF centre and spread   10  (  2.806782,  2.807062, -0.000057 )     1.36879339
  WF centre and spread   11  (  2.807121,  2.806790,  0.000192 )     1.36704771
  WF centre and spread   12  (  2.808108,  2.807435,  0.000193 )     1.33474058
  WF centre and spread   13  (  0.091865,  0.033068, -0.020187 )    19.90729305
  WF centre and spread   14  (  0.011685, -0.035494, -0.001214 )    12.35344568
  WF centre and spread   15  (  0.254824,  0.229095,  4.203066 )    25.78261279
  WF centre and spread   16  ( -1.034530, -1.924229,  5.698080 )    34.66069374
  WF centre and spread   17  (  2.889407,  2.852002,  3.945439 )    20.22965459
  WF centre and spread   18  (  2.846990,  2.790822,  3.972610 )    12.04930775
  WF centre and spread   19  (  3.753563,  4.536185,  2.023188 )    19.57496850
  WF centre and spread   20  (  0.581893,  3.331785,  0.522552 )    21.43106357
  WF centre and spread   21  (  1.403562,  4.210471,  0.160742 )     1.04786363
  WF centre and spread   22  (  1.436098,  4.174998,  0.142410 )     1.32020193
  WF centre and spread   23  (  1.439283,  4.174129,  0.141264 )     1.31199346
  WF centre and spread   24  (  1.403500,  1.403528, -0.165562 )     1.05325379
  WF centre and spread   25  (  1.435974,  1.437972, -0.142179 )     1.32931609
  WF centre and spread   26  (  1.437973,  1.440303, -0.141348 )     1.32911971
  WF centre and spread   27  (  4.210604,  1.403498,  4.133396 )     1.06961907
  WF centre and spread   28  (  4.245155,  1.366840,  4.111117 )     1.32130457
  WF centre and spread   29  (  4.247705,  1.367853,  4.111388 )     1.32766739
  WF centre and spread   30  (  4.210427,  4.210569,  3.808824 )     1.06683006
  WF centre and spread   31  (  4.245997,  4.245756,  3.828338 )     1.30756889
  WF centre and spread   32  (  4.248696,  4.242557,  3.827952 )     1.30310580
  WF centre and spread   33  (  4.210506,  1.403470, -0.165556 )     1.04847638
  WF centre and spread   34  (  4.179380,  1.436333, -0.141989 )     1.31831306
  WF centre and spread   35  (  4.178283,  1.432935, -0.141858 )     1.31631457
  WF centre and spread   36  (  4.210230,  4.210526,  0.160118 )     1.05350016
  WF centre and spread   37  (  4.183013,  4.178396,  0.142009 )     1.29067972
  WF centre and spread   38  (  4.179528,  4.177572,  0.141806 )     1.29015613
  WF centre and spread   39  (  1.403398,  4.210684,  3.809806 )     1.07473482
  WF centre and spread   40  (  1.371689,  4.242541,  3.827395 )     1.32033344
  WF centre and spread   41  (  1.370275,  4.241551,  3.827904 )     1.30722128
  WF centre and spread   42  (  1.403249,  1.403307,  4.132085 )     1.06748871
  WF centre and spread   43  (  1.370531,  1.372063,  4.111852 )     1.33150962
  WF centre and spread   44  (  1.370250,  1.371786,  4.111470 )     1.32413896
  WF centre and spread   45  (  0.000940,  0.179668,  2.031680 )     1.50492103
  WF centre and spread   46  (  0.001208,  0.202229,  1.984196 )     1.03616865
  WF centre and spread   47  ( -0.000289,  0.244059,  1.984621 )     1.05009875
  WF centre and spread   48  (  0.000829, -0.180033,  5.905667 )     1.50659193
  WF centre and spread   49  ( -0.000347, -0.202064,  5.955088 )     1.03737572
  WF centre and spread   50  ( -0.001261, -0.243593,  5.954666 )     1.05244962
  WF centre and spread   51  (  2.807631,  2.987346,  6.003559 )     1.50927893
  WF centre and spread   52  (  2.807634,  3.009591,  5.953986 )     1.03674384
  WF centre and spread   53  (  2.806838,  3.051879,  5.954485 )     1.05891631
  WF centre and spread   54  (  2.808068,  2.627279,  1.933828 )     1.50940413
  WF centre and spread   55  (  2.807073,  2.605499,  1.985167 )     1.03501904
  WF centre and spread   56  (  2.808678,  2.564282,  1.984987 )     1.05924088
  Sum of centres and spreads (110.481495,112.859618,139.426097 )   226.20380171

  10000    -0.199E-01    10.5725449975      226.2038017102     922.37  <-- CONV
        O_D=      0.6656875 O_OD=     67.9604759 O_TOT=    226.2038017 <-- SPRD
 Delta: O_D= -0.2014060E-01 O_OD=  0.2397720E-03 O_TOT= -0.1990083E-01 <-- DLTA
 ------------------------------------------------------------------------------
 Final State
  WF centre and spread    1  (  0.000048, -0.000100,  0.000046 )     1.36712442
  WF centre and spread    2  (  0.000080, -0.000069,  0.000035 )     1.36701895
  WF centre and spread    3  ( -0.000491, -0.001072,  0.000529 )     1.33789219
  WF centre and spread    4  (  0.000123, -0.000129,  3.969923 )     1.36860553
  WF centre and spread    5  ( -0.000174,  0.000037,  3.970042 )     1.36708775
  WF centre and spread    6  ( -0.000464, -0.000878,  3.969162 )     1.33468576
  WF centre and spread    7  (  2.806867,  2.807254,  3.969978 )     1.36873242
  WF centre and spread    8  (  2.807209,  2.806844,  3.969709 )     1.36922595
  WF centre and spread    9  (  2.808277,  2.807431,  3.969496 )     1.33688732
  WF centre and spread   10  (  2.806782,  2.807062, -0.000057 )     1.36879339
  WF centre and spread   11  (  2.807121,  2.806790,  0.000192 )     1.36704771
  WF centre and spread   12  (  2.808108,  2.807435,  0.000193 )     1.33474058
  WF centre and spread   13  (  0.091865,  0.033068, -0.020187 )    19.90729305
  WF centre and spread   14  (  0.011685, -0.035494, -0.001214 )    12.35344568
  WF centre and spread   15  (  0.254824,  0.229095,  4.203066 )    25.78261279
  WF centre and spread   16  ( -1.034530, -1.924229,  5.698080 )    34.66069374
  WF centre and spread   17  (  2.889407,  2.852002,  3.945439 )    20.22965459
  WF centre and spread   18  (  2.846990,  2.790822,  3.972610 )    12.04930775
  WF centre and spread   19  (  3.753563,  4.536185,  2.023188 )    19.57496850
  WF centre and spread   20  (  0.581893,  3.331785,  0.522552 )    21.43106357
  WF centre and spread   21  (  1.403562,  4.210471,  0.160742 )     1.04786363
  WF centre and spread   22  (  1.436098,  4.174998,  0.142410 )     1.32020193
  WF centre and spread   23  (  1.439283,  4.174129,  0.141264 )     1.31199346
  WF centre and spread   24  (  1.403500,  1.403528, -0.165562 )     1.05325379
  WF centre and spread   25  (  1.435974,  1.437972, -0.142179 )     1.32931609
  WF centre and spread   26  (  1.437973,  1.440303, -0.141348 )     1.32911971
  WF centre and spread   27  (  4.210604,  1.403498,  4.133396 )     1.06961907
  WF centre and spread   28  (  4.245155,  1.366840,  4.111117 )     1.32130457
  WF centre and spread   29  (  4.247705,  1.367853,  4.111388 )     1.32766739
  WF centre and spread   30  (  4.210427,  4.210569,  3.808824 )     1.06683006
  WF centre and spread   31  (  4.245997,  4.245756,  3.828338 )     1.30756889
  WF centre and spread   32  (  4.248696,  4.242557,  3.827952 )     1.30310580
  WF centre and spread   33  (  4.210506,  1.403470, -0.165556 )     1.04847638
  WF centre and spread   34  (  4.179380,  1.436333, -0.141989 )     1.31831306
  WF centre and spread   35  (  4.178283,  1.432935, -0.141858 )     1.31631457
  WF centre and spread   36  (  4.210230,  4.210526,  0.160118 )     1.05350016
  WF centre and spread   37  (  4.183013,  4.178396,  0.142009 )     1.29067972
  WF centre and spread   38  (  4.179528,  4.177572,  0.141806 )     1.29015613
  WF centre and spread   39  (  1.403398,  4.210684,  3.809806 )     1.07473482
  WF centre and spread   40  (  1.371689,  4.242541,  3.827395 )     1.32033344
  WF centre and spread   41  (  1.370275,  4.241551,  3.827904 )     1.30722128
  WF centre and spread   42  (  1.403249,  1.403307,  4.132085 )     1.06748871
  WF centre and spread   43  (  1.370531,  1.372063,  4.111852 )     1.33150962
  WF centre and spread   44  (  1.370250,  1.371786,  4.111470 )     1.32413896
  WF centre and spread   45  (  0.000940,  0.179668,  2.031680 )     1.50492103
  WF centre and spread   46  (  0.001208,  0.202229,  1.984196 )     1.03616865
  WF centre and spread   47  ( -0.000289,  0.244059,  1.984621 )     1.05009875
  WF centre and spread   48  (  0.000829, -0.180033,  5.905667 )     1.50659193
  WF centre and spread   49  ( -0.000347, -0.202064,  5.955088 )     1.03737572
  WF centre and spread   50  ( -0.001261, -0.243593,  5.954666 )     1.05244962
  WF centre and spread   51  (  2.807631,  2.987346,  6.003559 )     1.50927893
  WF centre and spread   52  (  2.807634,  3.009591,  5.953986 )     1.03674384
  WF centre and spread   53  (  2.806838,  3.051879,  5.954485 )     1.05891631
  WF centre and spread   54  (  2.808068,  2.627279,  1.933828 )     1.50940413
  WF centre and spread   55  (  2.807073,  2.605499,  1.985167 )     1.03501904
  WF centre and spread   56  (  2.808678,  2.564282,  1.984987 )     1.05924088
  Sum of centres and spreads (110.481495,112.859618,139.426097 )   226.20380171

         Spreads (Ang^2)       Omega I      =   157.577638295
        ================       Omega D      =     0.665687499
                               Omega OD     =    67.960475916
    Final Spread (Ang^2)       Omega Total  =   226.203801710
 ------------------------------------------------------------------------------

 Writing checkpoint file smo.chk... done

 *---------------------------------------------------------------------------*
 |                               PLOTTING                                    |
 *---------------------------------------------------------------------------*


 Calculating interpolated band-structure

 Time to calculate interpolated band structure       2.132 (sec)

  
  Omega Invariant:   1-s^2 =   157.577638294 (Ang^2)
                   -2log s =  1222.799044695 (Ang^2)
                    acos^2 =   253.918394425 (Ang^2)

 *===========================================================================*
 |                             TIMING INFORMATION                            |
 *===========================================================================*
 |    Tag                                                Ncalls      Time (s)|
 |---------------------------------------------------------------------------|
 |kmesh: get                                        :         1         0.115|
 |overlap: read                                     :         1         4.607|
 |wann: main                                        :         1       920.882|
 |plot: main                                        :         1         6.283|
 *---------------------------------------------------------------------------*
 All done: wannier90 exiting
